PSF EXT CMAP XPLOR AUTOG

         3 !NTITLE
* GENERATED BY CHARMM-GUI (HTTP://WWW.CHARMM-GUI.ORG) V3.7 ON OCT, 21. 2024. JOB
* GET A DIFFERENT CONFORMATION FOR LIPIDS PENETRATING PROTEIN / CHOL            
*  DATE:    10/21/24     13:56:57      CREATED BY USER: apache                  

     11298 !NATOM
         1 MEMB     1        OSM      N        NTL     -0.600000       14.0070           0
         2 MEMB     1        OSM      C15      CTL5    -0.350000       12.0110           0
         3 MEMB     1        OSM      H15A     HL       0.250000       1.00800           0
         4 MEMB     1        OSM      H15B     HL       0.250000       1.00800           0
         5 MEMB     1        OSM      H15C     HL       0.250000       1.00800           0
         6 MEMB     1        OSM      C14      CTL5    -0.350000       12.0110           0
         7 MEMB     1        OSM      H14A     HL       0.250000       1.00800           0
         8 MEMB     1        OSM      H14B     HL       0.250000       1.00800           0
         9 MEMB     1        OSM      H14C     HL       0.250000       1.00800           0
        10 MEMB     1        OSM      C13      CTL5    -0.350000       12.0110           0
        11 MEMB     1        OSM      H13A     HL       0.250000       1.00800           0
        12 MEMB     1        OSM      H13B     HL       0.250000       1.00800           0
        13 MEMB     1        OSM      H13C     HL       0.250000       1.00800           0
        14 MEMB     1        OSM      C12      CTL2    -0.100000       12.0110           0
        15 MEMB     1        OSM      H12A     HL       0.250000       1.00800           0
        16 MEMB     1        OSM      H12B     HL       0.250000       1.00800           0
        17 MEMB     1        OSM      C11      CTL2    -0.800000E-01   12.0110           0
        18 MEMB     1        OSM      H11A     HAL2     0.900000E-01   1.00800           0
        19 MEMB     1        OSM      H11B     HAL2     0.900000E-01   1.00800           0
        20 MEMB     1        OSM      P        PL        1.50000       30.9740           0
        21 MEMB     1        OSM      O13      O2L     -0.780000       15.9994           0
        22 MEMB     1        OSM      O14      O2L     -0.780000       15.9994           0
        23 MEMB     1        OSM      O11      OSLP    -0.570000       15.9994           0
        24 MEMB     1        OSM      O12      OSLP    -0.570000       15.9994           0
        25 MEMB     1        OSM      C1S      CTL2    -0.800000E-01   12.0110           0
        26 MEMB     1        OSM      H1S      HAL2     0.900000E-01   1.00800           0
        27 MEMB     1        OSM      H1T      HAL2     0.900000E-01   1.00800           0
        28 MEMB     1        OSM      NF       NHL     -0.700000       14.0070           0
        29 MEMB     1        OSM      HNF      H        0.350000       1.00800           0
        30 MEMB     1        OSM      C2S      CTL1     0.300000       12.0110           0
        31 MEMB     1        OSM      H2S      HAL1     0.500000E-01   1.00800           0
        32 MEMB     1        OSM      C3S      CTO1     0.500000       12.0110           0
        33 MEMB     1        OSM      H3S      HAL1    -0.110000       1.00800           0
        34 MEMB     1        OSM      O3       OHL     -0.690000       15.9994           0
        35 MEMB     1        OSM      HO3      HOL      0.300000       1.00800           0
        36 MEMB     1        OSM      C4S      CEL3    -0.150000       12.0110           0
        37 MEMB     1        OSM      H4S      HEL1     0.150000       1.00800           0
        38 MEMB     1        OSM      C5S      CEL3    -0.150000       12.0110           0
        39 MEMB     1        OSM      H5S      HEL1     0.150000       1.00800           0
        40 MEMB     1        OSM      C6S      CTL2    -0.180000       12.0110           0
        41 MEMB     1        OSM      H6S      HAL2     0.900000E-01   1.00800           0
        42 MEMB     1        OSM      H6T      HAL2     0.900000E-01   1.00800           0
        43 MEMB     1        OSM      C7S      CTL2    -0.180000       12.0110           0
        44 MEMB     1        OSM      H7S      HAL2     0.900000E-01   1.00800           0
        45 MEMB     1        OSM      H7T      HAL2     0.900000E-01   1.00800           0
        46 MEMB     1        OSM      C8S      CTL2    -0.180000       12.0110           0
        47 MEMB     1        OSM      H8S      HAL2     0.900000E-01   1.00800           0
        48 MEMB     1        OSM      H8T      HAL2     0.900000E-01   1.00800           0
        49 MEMB     1        OSM      C9S      CTL2    -0.180000       12.0110           0
        50 MEMB     1        OSM      H9S      HAL2     0.900000E-01   1.00800           0
        51 MEMB     1        OSM      H9T      HAL2     0.900000E-01   1.00800           0
        52 MEMB     1        OSM      C10S     CTL2    -0.180000       12.0110           0
        53 MEMB     1        OSM      H10S     HAL2     0.900000E-01   1.00800           0
        54 MEMB     1        OSM      H10T     HAL2     0.900000E-01   1.00800           0
        55 MEMB     1        OSM      C11S     CTL2    -0.180000       12.0110           0
        56 MEMB     1        OSM      H11S     HAL2     0.900000E-01   1.00800           0
        57 MEMB     1        OSM      H11T     HAL2     0.900000E-01   1.00800           0
        58 MEMB     1        OSM      C12S     CTL2    -0.180000       12.0110           0
        59 MEMB     1        OSM      H12S     HAL2     0.900000E-01   1.00800           0
        60 MEMB     1        OSM      H12T     HAL2     0.900000E-01   1.00800           0
        61 MEMB     1        OSM      C13S     CTL2    -0.180000       12.0110           0
        62 MEMB     1        OSM      H13S     HAL2     0.900000E-01   1.00800           0
        63 MEMB     1        OSM      H13T     HAL2     0.900000E-01   1.00800           0
        64 MEMB     1        OSM      C14S     CTL2    -0.180000       12.0110           0
        65 MEMB     1        OSM      H14S     HAL2     0.900000E-01   1.00800           0
        66 MEMB     1        OSM      H14T     HAL2     0.900000E-01   1.00800           0
        67 MEMB     1        OSM      C15S     CTL2    -0.180000       12.0110           0
        68 MEMB     1        OSM      H15S     HAL2     0.900000E-01   1.00800           0
        69 MEMB     1        OSM      H15T     HAL2     0.900000E-01   1.00800           0
        70 MEMB     1        OSM      C16S     CTL2    -0.180000       12.0110           0
        71 MEMB     1        OSM      H16S     HAL2     0.900000E-01   1.00800           0
        72 MEMB     1        OSM      H16T     HAL2     0.900000E-01   1.00800           0
        73 MEMB     1        OSM      C17S     CTL2    -0.180000       12.0110           0
        74 MEMB     1        OSM      H17S     HAL2     0.900000E-01   1.00800           0
        75 MEMB     1        OSM      H17T     HAL2     0.900000E-01   1.00800           0
        76 MEMB     1        OSM      C18S     CTL3    -0.270000       12.0110           0
        77 MEMB     1        OSM      H18S     HAL3     0.900000E-01   1.00800           0
        78 MEMB     1        OSM      H18T     HAL3     0.900000E-01   1.00800           0
        79 MEMB     1        OSM      H18U     HAL3     0.900000E-01   1.00800           0
        80 MEMB     1        OSM      C1F      C        0.550000       12.0110           0
        81 MEMB     1        OSM      OF       O       -0.600000       15.9994           0
        82 MEMB     1        OSM      C2F      CTL2    -0.700000E-01   12.0110           0
        83 MEMB     1        OSM      H2F      HAL2     0.600000E-01   1.00800           0
        84 MEMB     1        OSM      H2G      HAL2     0.600000E-01   1.00800           0
        85 MEMB     1        OSM      C3F      CTL2    -0.180000       12.0110           0
        86 MEMB     1        OSM      H3F      HAL2     0.900000E-01   1.00800           0
        87 MEMB     1        OSM      H3G      HAL2     0.900000E-01   1.00800           0
        88 MEMB     1        OSM      C4F      CTL2    -0.180000       12.0110           0
        89 MEMB     1        OSM      H4F      HAL2     0.900000E-01   1.00800           0
        90 MEMB     1        OSM      H4G      HAL2     0.900000E-01   1.00800           0
        91 MEMB     1        OSM      C5F      CTL2    -0.180000       12.0110           0
        92 MEMB     1        OSM      H5F      HAL2     0.900000E-01   1.00800           0
        93 MEMB     1        OSM      H5G      HAL2     0.900000E-01   1.00800           0
        94 MEMB     1        OSM      C6F      CTL2    -0.180000       12.0110           0
        95 MEMB     1        OSM      H6F      HAL2     0.900000E-01   1.00800           0
        96 MEMB     1        OSM      H6G      HAL2     0.900000E-01   1.00800           0
        97 MEMB     1        OSM      C7F      CTL2    -0.180000       12.0110           0
        98 MEMB     1        OSM      H7F      HAL2     0.900000E-01   1.00800           0
        99 MEMB     1        OSM      H7G      HAL2     0.900000E-01   1.00800           0
       100 MEMB     1        OSM      C8F      CTL2    -0.180000       12.0110           0
       101 MEMB     1        OSM      H8F      HAL2     0.900000E-01   1.00800           0
       102 MEMB     1        OSM      H8G      HAL2     0.900000E-01   1.00800           0
       103 MEMB     1        OSM      C9F      CEL1    -0.150000       12.0110           0
       104 MEMB     1        OSM      H9F      HEL1     0.150000       1.00800           0
       105 MEMB     1        OSM      C10F     CEL1    -0.150000       12.0110           0
       106 MEMB     1        OSM      H10F     HEL1     0.150000       1.00800           0
       107 MEMB     1        OSM      C11F     CTL2    -0.180000       12.0110           0
       108 MEMB     1        OSM      H11F     HAL2     0.900000E-01   1.00800           0
       109 MEMB     1        OSM      H11G     HAL2     0.900000E-01   1.00800           0
       110 MEMB     1        OSM      C12F     CTL2    -0.180000       12.0110           0
       111 MEMB     1        OSM      H12F     HAL2     0.900000E-01   1.00800           0
       112 MEMB     1        OSM      H12G     HAL2     0.900000E-01   1.00800           0
       113 MEMB     1        OSM      C13F     CTL2    -0.180000       12.0110           0
       114 MEMB     1        OSM      H13F     HAL2     0.900000E-01   1.00800           0
       115 MEMB     1        OSM      H13G     HAL2     0.900000E-01   1.00800           0
       116 MEMB     1        OSM      C14F     CTL2    -0.180000       12.0110           0
       117 MEMB     1        OSM      H14F     HAL2     0.900000E-01   1.00800           0
       118 MEMB     1        OSM      H14G     HAL2     0.900000E-01   1.00800           0
       119 MEMB     1        OSM      C15F     CTL2    -0.180000       12.0110           0
       120 MEMB     1        OSM      H15F     HAL2     0.900000E-01   1.00800           0
       121 MEMB     1        OSM      H15G     HAL2     0.900000E-01   1.00800           0
       122 MEMB     1        OSM      C16F     CTL2    -0.180000       12.0110           0
       123 MEMB     1        OSM      H16F     HAL2     0.900000E-01   1.00800           0
       124 MEMB     1        OSM      H16G     HAL2     0.900000E-01   1.00800           0
       125 MEMB     1        OSM      C17F     CTL2    -0.180000       12.0110           0
       126 MEMB     1        OSM      H17F     HAL2     0.900000E-01   1.00800           0
       127 MEMB     1        OSM      H17G     HAL2     0.900000E-01   1.00800           0
       128 MEMB     1        OSM      C18F     CTL3    -0.270000       12.0110           0
       129 MEMB     1        OSM      H18F     HAL3     0.900000E-01   1.00800           0
       130 MEMB     1        OSM      H18G     HAL3     0.900000E-01   1.00800           0
       131 MEMB     1        OSM      H18H     HAL3     0.900000E-01   1.00800           0
       132 MEMB     2        SAPS     N        NH3L    -0.300000       14.0070           0
       133 MEMB     2        SAPS     HN1      HCL      0.330000       1.00800           0
       134 MEMB     2        SAPS     HN2      HCL      0.330000       1.00800           0
       135 MEMB     2        SAPS     HN3      HCL      0.330000       1.00800           0
       136 MEMB     2        SAPS     C12      CTL1     0.210000       12.0110           0
       137 MEMB     2        SAPS     H12A     HBL      0.100000       1.00800           0
       138 MEMB     2        SAPS     C13      CCL      0.340000       12.0110           0
       139 MEMB     2        SAPS     O13A     OCL     -0.670000       15.9994           0
       140 MEMB     2        SAPS     O13B     OCL     -0.670000       15.9994           0
       141 MEMB     2        SAPS     C11      CTL2    -0.800000E-01   12.0110           0
       142 MEMB     2        SAPS     H11A     HAL2     0.900000E-01   1.00800           0
       143 MEMB     2        SAPS     H11B     HAL2     0.900000E-01   1.00800           0
       144 MEMB     2        SAPS     P        PL        1.50000       30.9740           0
       145 MEMB     2        SAPS     O13      O2L     -0.780000       15.9994           0
       146 MEMB     2        SAPS     O14      O2L     -0.780000       15.9994           0
       147 MEMB     2        SAPS     O12      OSLP    -0.570000       15.9994           0
       148 MEMB     2        SAPS     O11      OSLP    -0.570000       15.9994           0
       149 MEMB     2        SAPS     C1       CTL2    -0.800000E-01   12.0110           0
       150 MEMB     2        SAPS     HA       HAL2     0.900000E-01   1.00800           0
       151 MEMB     2        SAPS     HB       HAL2     0.900000E-01   1.00800           0
       152 MEMB     2        SAPS     C2       CTL1     0.170000       12.0110           0
       153 MEMB     2        SAPS     HS       HAL1     0.900000E-01   1.00800           0
       154 MEMB     2        SAPS     O21      OSL     -0.490000       15.9994           0
       155 MEMB     2        SAPS     C21      CL       0.900000       12.0110           0
       156 MEMB     2        SAPS     O22      OBL     -0.630000       15.9994           0
       157 MEMB     2        SAPS     C22      CTL2    -0.220000       12.0110           0
       158 MEMB     2        SAPS     H2R      HAL2     0.900000E-01   1.00800           0
       159 MEMB     2        SAPS     H2S      HAL2     0.900000E-01   1.00800           0
       160 MEMB     2        SAPS     C3       CTL2     0.800000E-01   12.0110           0
       161 MEMB     2        SAPS     HX       HAL2     0.900000E-01   1.00800           0
       162 MEMB     2        SAPS     HY       HAL2     0.900000E-01   1.00800           0
       163 MEMB     2        SAPS     O31      OSL     -0.490000       15.9994           0
       164 MEMB     2        SAPS     C31      CL       0.900000       12.0110           0
       165 MEMB     2        SAPS     O32      OBL     -0.630000       15.9994           0
       166 MEMB     2        SAPS     C32      CTL2    -0.220000       12.0110           0
       167 MEMB     2        SAPS     H2X      HAL2     0.900000E-01   1.00800           0
       168 MEMB     2        SAPS     H2Y      HAL2     0.900000E-01   1.00800           0
       169 MEMB     2        SAPS     C23      CTL2    -0.180000       12.0110           0
       170 MEMB     2        SAPS     H3R      HAL2     0.900000E-01   1.00800           0
       171 MEMB     2        SAPS     H3S      HAL2     0.900000E-01   1.00800           0
       172 MEMB     2        SAPS     C24      CTL2    -0.180000       12.0110           0
       173 MEMB     2        SAPS     H4R      HAL2     0.900000E-01   1.00800           0
       174 MEMB     2        SAPS     H4S      HAL2     0.900000E-01   1.00800           0
       175 MEMB     2        SAPS     C25      CEL1    -0.150000       12.0110           0
       176 MEMB     2        SAPS     H5R      HEL1     0.150000       1.00800           0
       177 MEMB     2        SAPS     C26      CEL1    -0.150000       12.0110           0
       178 MEMB     2        SAPS     H6R      HEL1     0.150000       1.00800           0
       179 MEMB     2        SAPS     C27      CTL2    -0.180000       12.0110           0
       180 MEMB     2        SAPS     H7R      HAL2     0.900000E-01   1.00800           0
       181 MEMB     2        SAPS     H7S      HAL2     0.900000E-01   1.00800           0
       182 MEMB     2        SAPS     C28      CEL1    -0.150000       12.0110           0
       183 MEMB     2        SAPS     H8R      HEL1     0.150000       1.00800           0
       184 MEMB     2        SAPS     C29      CEL1    -0.150000       12.0110           0
       185 MEMB     2        SAPS     H9R      HEL1     0.150000       1.00800           0
       186 MEMB     2        SAPS     C210     CTL2    -0.180000       12.0110           0
       187 MEMB     2        SAPS     H10R     HAL2     0.900000E-01   1.00800           0
       188 MEMB     2        SAPS     H10S     HAL2     0.900000E-01   1.00800           0
       189 MEMB     2        SAPS     C211     CEL1    -0.150000       12.0110           0
       190 MEMB     2        SAPS     H11R     HEL1     0.150000       1.00800           0
       191 MEMB     2        SAPS     C212     CEL1    -0.150000       12.0110           0
       192 MEMB     2        SAPS     H12R     HEL1     0.150000       1.00800           0
       193 MEMB     2        SAPS     C213     CTL2    -0.180000       12.0110           0
       194 MEMB     2        SAPS     H13R     HAL2     0.900000E-01   1.00800           0
       195 MEMB     2        SAPS     H13S     HAL2     0.900000E-01   1.00800           0
       196 MEMB     2        SAPS     C214     CEL1    -0.150000       12.0110           0
       197 MEMB     2        SAPS     H14R     HEL1     0.150000       1.00800           0
       198 MEMB     2        SAPS     C215     CEL1    -0.150000       12.0110           0
       199 MEMB     2        SAPS     H15R     HEL1     0.150000       1.00800           0
       200 MEMB     2        SAPS     C216     CTL2    -0.180000       12.0110           0
       201 MEMB     2        SAPS     H16R     HAL2     0.900000E-01   1.00800           0
       202 MEMB     2        SAPS     H16S     HAL2     0.900000E-01   1.00800           0
       203 MEMB     2        SAPS     C217     CTL2    -0.180000       12.0110           0
       204 MEMB     2        SAPS     H17R     HAL2     0.900000E-01   1.00800           0
       205 MEMB     2        SAPS     H17S     HAL2     0.900000E-01   1.00800           0
       206 MEMB     2        SAPS     C218     CTL2    -0.180000       12.0110           0
       207 MEMB     2        SAPS     H18R     HAL2     0.900000E-01   1.00800           0
       208 MEMB     2        SAPS     H18S     HAL2     0.900000E-01   1.00800           0
       209 MEMB     2        SAPS     C219     CTL2    -0.180000       12.0110           0
       210 MEMB     2        SAPS     H19R     HAL2     0.900000E-01   1.00800           0
       211 MEMB     2        SAPS     H19S     HAL2     0.900000E-01   1.00800           0
       212 MEMB     2        SAPS     C220     CTL3    -0.270000       12.0110           0
       213 MEMB     2        SAPS     H20R     HAL3     0.900000E-01   1.00800           0
       214 MEMB     2        SAPS     H20S     HAL3     0.900000E-01   1.00800           0
       215 MEMB     2        SAPS     H20T     HAL3     0.900000E-01   1.00800           0
       216 MEMB     2        SAPS     C33      CTL2    -0.180000       12.0110           0
       217 MEMB     2        SAPS     H3X      HAL2     0.900000E-01   1.00800           0
       218 MEMB     2        SAPS     H3Y      HAL2     0.900000E-01   1.00800           0
       219 MEMB     2        SAPS     C34      CTL2    -0.180000       12.0110           0
       220 MEMB     2        SAPS     H4X      HAL2     0.900000E-01   1.00800           0
       221 MEMB     2        SAPS     H4Y      HAL2     0.900000E-01   1.00800           0
       222 MEMB     2        SAPS     C35      CTL2    -0.180000       12.0110           0
       223 MEMB     2        SAPS     H5X      HAL2     0.900000E-01   1.00800           0
       224 MEMB     2        SAPS     H5Y      HAL2     0.900000E-01   1.00800           0
       225 MEMB     2        SAPS     C36      CTL2    -0.180000       12.0110           0
       226 MEMB     2        SAPS     H6X      HAL2     0.900000E-01   1.00800           0
       227 MEMB     2        SAPS     H6Y      HAL2     0.900000E-01   1.00800           0
       228 MEMB     2        SAPS     C37      CTL2    -0.180000       12.0110           0
       229 MEMB     2        SAPS     H7X      HAL2     0.900000E-01   1.00800           0
       230 MEMB     2        SAPS     H7Y      HAL2     0.900000E-01   1.00800           0
       231 MEMB     2        SAPS     C38      CTL2    -0.180000       12.0110           0
       232 MEMB     2        SAPS     H8X      HAL2     0.900000E-01   1.00800           0
       233 MEMB     2        SAPS     H8Y      HAL2     0.900000E-01   1.00800           0
       234 MEMB     2        SAPS     C39      CTL2    -0.180000       12.0110           0
       235 MEMB     2        SAPS     H9X      HAL2     0.900000E-01   1.00800           0
       236 MEMB     2        SAPS     H9Y      HAL2     0.900000E-01   1.00800           0
       237 MEMB     2        SAPS     C310     CTL2    -0.180000       12.0110           0
       238 MEMB     2        SAPS     H10X     HAL2     0.900000E-01   1.00800           0
       239 MEMB     2        SAPS     H10Y     HAL2     0.900000E-01   1.00800           0
       240 MEMB     2        SAPS     C311     CTL2    -0.180000       12.0110           0
       241 MEMB     2        SAPS     H11X     HAL2     0.900000E-01   1.00800           0
       242 MEMB     2        SAPS     H11Y     HAL2     0.900000E-01   1.00800           0
       243 MEMB     2        SAPS     C312     CTL2    -0.180000       12.0110           0
       244 MEMB     2        SAPS     H12X     HAL2     0.900000E-01   1.00800           0
       245 MEMB     2        SAPS     H12Y     HAL2     0.900000E-01   1.00800           0
       246 MEMB     2        SAPS     C313     CTL2    -0.180000       12.0110           0
       247 MEMB     2        SAPS     H13X     HAL2     0.900000E-01   1.00800           0
       248 MEMB     2        SAPS     H13Y     HAL2     0.900000E-01   1.00800           0
       249 MEMB     2        SAPS     C314     CTL2    -0.180000       12.0110           0
       250 MEMB     2        SAPS     H14X     HAL2     0.900000E-01   1.00800           0
       251 MEMB     2        SAPS     H14Y     HAL2     0.900000E-01   1.00800           0
       252 MEMB     2        SAPS     C315     CTL2    -0.180000       12.0110           0
       253 MEMB     2        SAPS     H15X     HAL2     0.900000E-01   1.00800           0
       254 MEMB     2        SAPS     H15Y     HAL2     0.900000E-01   1.00800           0
       255 MEMB     2        SAPS     C316     CTL2    -0.180000       12.0110           0
       256 MEMB     2        SAPS     H16X     HAL2     0.900000E-01   1.00800           0
       257 MEMB     2        SAPS     H16Y     HAL2     0.900000E-01   1.00800           0
       258 MEMB     2        SAPS     C317     CTL2    -0.180000       12.0110           0
       259 MEMB     2        SAPS     H17X     HAL2     0.900000E-01   1.00800           0
       260 MEMB     2        SAPS     H17Y     HAL2     0.900000E-01   1.00800           0
       261 MEMB     2        SAPS     C318     CTL3    -0.270000       12.0110           0
       262 MEMB     2        SAPS     H18X     HAL3     0.900000E-01   1.00800           0
       263 MEMB     2        SAPS     H18Y     HAL3     0.900000E-01   1.00800           0
       264 MEMB     2        SAPS     H18Z     HAL3     0.900000E-01   1.00800           0
       265 MEMB     3        SAPE     N        NH3L    -0.300000       14.0070           0
       266 MEMB     3        SAPE     HN1      HCL      0.330000       1.00800           0
       267 MEMB     3        SAPE     HN2      HCL      0.330000       1.00800           0
       268 MEMB     3        SAPE     HN3      HCL      0.330000       1.00800           0
       269 MEMB     3        SAPE     C12      CTL2     0.130000       12.0110           0
       270 MEMB     3        SAPE     H12A     HAL2     0.900000E-01   1.00800           0
       271 MEMB     3        SAPE     H12B     HAL2     0.900000E-01   1.00800           0
       272 MEMB     3        SAPE     C11      CTL2    -0.800000E-01   12.0110           0
       273 MEMB     3        SAPE     H11A     HAL2     0.900000E-01   1.00800           0
       274 MEMB     3        SAPE     H11B     HAL2     0.900000E-01   1.00800           0
       275 MEMB     3        SAPE     P        PL        1.50000       30.9740           0
       276 MEMB     3        SAPE     O13      O2L     -0.780000       15.9994           0
       277 MEMB     3        SAPE     O14      O2L     -0.780000       15.9994           0
       278 MEMB     3        SAPE     O12      OSLP    -0.570000       15.9994           0
       279 MEMB     3        SAPE     O11      OSLP    -0.570000       15.9994           0
       280 MEMB     3        SAPE     C1       CTL2    -0.800000E-01   12.0110           0
       281 MEMB     3        SAPE     HA       HAL2     0.900000E-01   1.00800           0
       282 MEMB     3        SAPE     HB       HAL2     0.900000E-01   1.00800           0
       283 MEMB     3        SAPE     C2       CTL1     0.170000       12.0110           0
       284 MEMB     3        SAPE     HS       HAL1     0.900000E-01   1.00800           0
       285 MEMB     3        SAPE     O21      OSL     -0.490000       15.9994           0
       286 MEMB     3        SAPE     C21      CL       0.900000       12.0110           0
       287 MEMB     3        SAPE     O22      OBL     -0.630000       15.9994           0
       288 MEMB     3        SAPE     C22      CTL2    -0.220000       12.0110           0
       289 MEMB     3        SAPE     H2R      HAL2     0.900000E-01   1.00800           0
       290 MEMB     3        SAPE     H2S      HAL2     0.900000E-01   1.00800           0
       291 MEMB     3        SAPE     C3       CTL2     0.800000E-01   12.0110           0
       292 MEMB     3        SAPE     HX       HAL2     0.900000E-01   1.00800           0
       293 MEMB     3        SAPE     HY       HAL2     0.900000E-01   1.00800           0
       294 MEMB     3        SAPE     O31      OSL     -0.490000       15.9994           0
       295 MEMB     3        SAPE     C31      CL       0.900000       12.0110           0
       296 MEMB     3        SAPE     O32      OBL     -0.630000       15.9994           0
       297 MEMB     3        SAPE     C32      CTL2    -0.220000       12.0110           0
       298 MEMB     3        SAPE     H2X      HAL2     0.900000E-01   1.00800           0
       299 MEMB     3        SAPE     H2Y      HAL2     0.900000E-01   1.00800           0
       300 MEMB     3        SAPE     C23      CTL2    -0.180000       12.0110           0
       301 MEMB     3        SAPE     H3R      HAL2     0.900000E-01   1.00800           0
       302 MEMB     3        SAPE     H3S      HAL2     0.900000E-01   1.00800           0
       303 MEMB     3        SAPE     C24      CTL2    -0.180000       12.0110           0
       304 MEMB     3        SAPE     H4R      HAL2     0.900000E-01   1.00800           0
       305 MEMB     3        SAPE     H4S      HAL2     0.900000E-01   1.00800           0
       306 MEMB     3        SAPE     C25      CEL1    -0.150000       12.0110           0
       307 MEMB     3        SAPE     H5R      HEL1     0.150000       1.00800           0
       308 MEMB     3        SAPE     C26      CEL1    -0.150000       12.0110           0
       309 MEMB     3        SAPE     H6R      HEL1     0.150000       1.00800           0
       310 MEMB     3        SAPE     C27      CTL2    -0.180000       12.0110           0
       311 MEMB     3        SAPE     H7R      HAL2     0.900000E-01   1.00800           0
       312 MEMB     3        SAPE     H7S      HAL2     0.900000E-01   1.00800           0
       313 MEMB     3        SAPE     C28      CEL1    -0.150000       12.0110           0
       314 MEMB     3        SAPE     H8R      HEL1     0.150000       1.00800           0
       315 MEMB     3        SAPE     C29      CEL1    -0.150000       12.0110           0
       316 MEMB     3        SAPE     H9R      HEL1     0.150000       1.00800           0
       317 MEMB     3        SAPE     C210     CTL2    -0.180000       12.0110           0
       318 MEMB     3        SAPE     H10R     HAL2     0.900000E-01   1.00800           0
       319 MEMB     3        SAPE     H10S     HAL2     0.900000E-01   1.00800           0
       320 MEMB     3        SAPE     C211     CEL1    -0.150000       12.0110           0
       321 MEMB     3        SAPE     H11R     HEL1     0.150000       1.00800           0
       322 MEMB     3        SAPE     C212     CEL1    -0.150000       12.0110           0
       323 MEMB     3        SAPE     H12R     HEL1     0.150000       1.00800           0
       324 MEMB     3        SAPE     C213     CTL2    -0.180000       12.0110           0
       325 MEMB     3        SAPE     H13R     HAL2     0.900000E-01   1.00800           0
       326 MEMB     3        SAPE     H13S     HAL2     0.900000E-01   1.00800           0
       327 MEMB     3        SAPE     C214     CEL1    -0.150000       12.0110           0
       328 MEMB     3        SAPE     H14R     HEL1     0.150000       1.00800           0
       329 MEMB     3        SAPE     C215     CEL1    -0.150000       12.0110           0
       330 MEMB     3        SAPE     H15R     HEL1     0.150000       1.00800           0
       331 MEMB     3        SAPE     C216     CTL2    -0.180000       12.0110           0
       332 MEMB     3        SAPE     H16R     HAL2     0.900000E-01   1.00800           0
       333 MEMB     3        SAPE     H16S     HAL2     0.900000E-01   1.00800           0
       334 MEMB     3        SAPE     C217     CTL2    -0.180000       12.0110           0
       335 MEMB     3        SAPE     H17R     HAL2     0.900000E-01   1.00800           0
       336 MEMB     3        SAPE     H17S     HAL2     0.900000E-01   1.00800           0
       337 MEMB     3        SAPE     C218     CTL2    -0.180000       12.0110           0
       338 MEMB     3        SAPE     H18R     HAL2     0.900000E-01   1.00800           0
       339 MEMB     3        SAPE     H18S     HAL2     0.900000E-01   1.00800           0
       340 MEMB     3        SAPE     C219     CTL2    -0.180000       12.0110           0
       341 MEMB     3        SAPE     H19R     HAL2     0.900000E-01   1.00800           0
       342 MEMB     3        SAPE     H19S     HAL2     0.900000E-01   1.00800           0
       343 MEMB     3        SAPE     C220     CTL3    -0.270000       12.0110           0
       344 MEMB     3        SAPE     H20R     HAL3     0.900000E-01   1.00800           0
       345 MEMB     3        SAPE     H20S     HAL3     0.900000E-01   1.00800           0
       346 MEMB     3        SAPE     H20T     HAL3     0.900000E-01   1.00800           0
       347 MEMB     3        SAPE     C33      CTL2    -0.180000       12.0110           0
       348 MEMB     3        SAPE     H3X      HAL2     0.900000E-01   1.00800           0
       349 MEMB     3        SAPE     H3Y      HAL2     0.900000E-01   1.00800           0
       350 MEMB     3        SAPE     C34      CTL2    -0.180000       12.0110           0
       351 MEMB     3        SAPE     H4X      HAL2     0.900000E-01   1.00800           0
       352 MEMB     3        SAPE     H4Y      HAL2     0.900000E-01   1.00800           0
       353 MEMB     3        SAPE     C35      CTL2    -0.180000       12.0110           0
       354 MEMB     3        SAPE     H5X      HAL2     0.900000E-01   1.00800           0
       355 MEMB     3        SAPE     H5Y      HAL2     0.900000E-01   1.00800           0
       356 MEMB     3        SAPE     C36      CTL2    -0.180000       12.0110           0
       357 MEMB     3        SAPE     H6X      HAL2     0.900000E-01   1.00800           0
       358 MEMB     3        SAPE     H6Y      HAL2     0.900000E-01   1.00800           0
       359 MEMB     3        SAPE     C37      CTL2    -0.180000       12.0110           0
       360 MEMB     3        SAPE     H7X      HAL2     0.900000E-01   1.00800           0
       361 MEMB     3        SAPE     H7Y      HAL2     0.900000E-01   1.00800           0
       362 MEMB     3        SAPE     C38      CTL2    -0.180000       12.0110           0
       363 MEMB     3        SAPE     H8X      HAL2     0.900000E-01   1.00800           0
       364 MEMB     3        SAPE     H8Y      HAL2     0.900000E-01   1.00800           0
       365 MEMB     3        SAPE     C39      CTL2    -0.180000       12.0110           0
       366 MEMB     3        SAPE     H9X      HAL2     0.900000E-01   1.00800           0
       367 MEMB     3        SAPE     H9Y      HAL2     0.900000E-01   1.00800           0
       368 MEMB     3        SAPE     C310     CTL2    -0.180000       12.0110           0
       369 MEMB     3        SAPE     H10X     HAL2     0.900000E-01   1.00800           0
       370 MEMB     3        SAPE     H10Y     HAL2     0.900000E-01   1.00800           0
       371 MEMB     3        SAPE     C311     CTL2    -0.180000       12.0110           0
       372 MEMB     3        SAPE     H11X     HAL2     0.900000E-01   1.00800           0
       373 MEMB     3        SAPE     H11Y     HAL2     0.900000E-01   1.00800           0
       374 MEMB     3        SAPE     C312     CTL2    -0.180000       12.0110           0
       375 MEMB     3        SAPE     H12X     HAL2     0.900000E-01   1.00800           0
       376 MEMB     3        SAPE     H12Y     HAL2     0.900000E-01   1.00800           0
       377 MEMB     3        SAPE     C313     CTL2    -0.180000       12.0110           0
       378 MEMB     3        SAPE     H13X     HAL2     0.900000E-01   1.00800           0
       379 MEMB     3        SAPE     H13Y     HAL2     0.900000E-01   1.00800           0
       380 MEMB     3        SAPE     C314     CTL2    -0.180000       12.0110           0
       381 MEMB     3        SAPE     H14X     HAL2     0.900000E-01   1.00800           0
       382 MEMB     3        SAPE     H14Y     HAL2     0.900000E-01   1.00800           0
       383 MEMB     3        SAPE     C315     CTL2    -0.180000       12.0110           0
       384 MEMB     3        SAPE     H15X     HAL2     0.900000E-01   1.00800           0
       385 MEMB     3        SAPE     H15Y     HAL2     0.900000E-01   1.00800           0
       386 MEMB     3        SAPE     C316     CTL2    -0.180000       12.0110           0
       387 MEMB     3        SAPE     H16X     HAL2     0.900000E-01   1.00800           0
       388 MEMB     3        SAPE     H16Y     HAL2     0.900000E-01   1.00800           0
       389 MEMB     3        SAPE     C317     CTL2    -0.180000       12.0110           0
       390 MEMB     3        SAPE     H17X     HAL2     0.900000E-01   1.00800           0
       391 MEMB     3        SAPE     H17Y     HAL2     0.900000E-01   1.00800           0
       392 MEMB     3        SAPE     C318     CTL3    -0.270000       12.0110           0
       393 MEMB     3        SAPE     H18X     HAL3     0.900000E-01   1.00800           0
       394 MEMB     3        SAPE     H18Y     HAL3     0.900000E-01   1.00800           0
       395 MEMB     3        SAPE     H18Z     HAL3     0.900000E-01   1.00800           0
       396 MEMB     4        CHL1     C3       CRL1     0.140000       12.0110           0
       397 MEMB     4        CHL1     H3       HGA1     0.900000E-01   1.00800           0
       398 MEMB     4        CHL1     O3       OHL     -0.660000       15.9994           0
       399 MEMB     4        CHL1     H3'      HOL      0.430000       1.00800           0
       400 MEMB     4        CHL1     C4       CRL2    -0.180000       12.0110           0
       401 MEMB     4        CHL1     H4A      HGA2     0.900000E-01   1.00800           0
       402 MEMB     4        CHL1     H4B      HGA2     0.900000E-01   1.00800           0
       403 MEMB     4        CHL1     C5       CEL1      0.00000       12.0110           0
       404 MEMB     4        CHL1     C6       CEL1    -0.150000       12.0110           0
       405 MEMB     4        CHL1     H6       HEL1     0.150000       1.00800           0
       406 MEMB     4        CHL1     C7       CRL2    -0.180000       12.0110           0
       407 MEMB     4        CHL1     H7A      HGA2     0.900000E-01   1.00800           0
       408 MEMB     4        CHL1     H7B      HGA2     0.900000E-01   1.00800           0
       409 MEMB     4        CHL1     C8       CRL1    -0.900000E-01   12.0110           0
       410 MEMB     4        CHL1     H8       HGA1     0.900000E-01   1.00800           0
       411 MEMB     4        CHL1     C14      CRL1    -0.900000E-01   12.0110           0
       412 MEMB     4        CHL1     H14      HGA1     0.900000E-01   1.00800           0
       413 MEMB     4        CHL1     C15      CRL2    -0.180000       12.0110           0
       414 MEMB     4        CHL1     H15A     HGA2     0.900000E-01   1.00800           0
       415 MEMB     4        CHL1     H15B     HGA2     0.900000E-01   1.00800           0
       416 MEMB     4        CHL1     C16      CRL2    -0.180000       12.0110           0
       417 MEMB     4        CHL1     H16A     HGA2     0.900000E-01   1.00800           0
       418 MEMB     4        CHL1     H16B     HGA2     0.900000E-01   1.00800           0
       419 MEMB     4        CHL1     C17      CRL1    -0.900000E-01   12.0110           0
       420 MEMB     4        CHL1     H17      HGA1     0.900000E-01   1.00800           0
       421 MEMB     4        CHL1     C13      CRL1      0.00000       12.0110           0
       422 MEMB     4        CHL1     C18      CTL3    -0.270000       12.0110           0
       423 MEMB     4        CHL1     H18A     HAL3     0.900000E-01   1.00800           0
       424 MEMB     4        CHL1     H18B     HAL3     0.900000E-01   1.00800           0
       425 MEMB     4        CHL1     H18C     HAL3     0.900000E-01   1.00800           0
       426 MEMB     4        CHL1     C12      CRL2    -0.180000       12.0110           0
       427 MEMB     4        CHL1     H12A     HGA2     0.900000E-01   1.00800           0
       428 MEMB     4        CHL1     H12B     HGA2     0.900000E-01   1.00800           0
       429 MEMB     4        CHL1     C11      CRL2    -0.180000       12.0110           0
       430 MEMB     4        CHL1     H11A     HGA2     0.900000E-01   1.00800           0
       431 MEMB     4        CHL1     H11B     HGA2     0.900000E-01   1.00800           0
       432 MEMB     4        CHL1     C9       CRL1    -0.900000E-01   12.0110           0
       433 MEMB     4        CHL1     H9       HGA1     0.900000E-01   1.00800           0
       434 MEMB     4        CHL1     C10      CRL1      0.00000       12.0110           0
       435 MEMB     4        CHL1     C19      CTL3    -0.270000       12.0110           0
       436 MEMB     4        CHL1     H19A     HAL3     0.900000E-01   1.00800           0
       437 MEMB     4        CHL1     H19B     HAL3     0.900000E-01   1.00800           0
       438 MEMB     4        CHL1     H19C     HAL3     0.900000E-01   1.00800           0
       439 MEMB     4        CHL1     C1       CRL2    -0.180000       12.0110           0
       440 MEMB     4        CHL1     H1A      HGA2     0.900000E-01   1.00800           0
       441 MEMB     4        CHL1     H1B      HGA2     0.900000E-01   1.00800           0
       442 MEMB     4        CHL1     C2       CRL2    -0.180000       12.0110           0
       443 MEMB     4        CHL1     H2A      HGA2     0.900000E-01   1.00800           0
       444 MEMB     4        CHL1     H2B      HGA2     0.900000E-01   1.00800           0
       445 MEMB     4        CHL1     C20      CTL1    -0.900000E-01   12.0110           0
       446 MEMB     4        CHL1     H20      HAL1     0.900000E-01   1.00800           0
       447 MEMB     4        CHL1     C21      CTL3    -0.270000       12.0110           0
       448 MEMB     4        CHL1     H21A     HAL3     0.900000E-01   1.00800           0
       449 MEMB     4        CHL1     H21B     HAL3     0.900000E-01   1.00800           0
       450 MEMB     4        CHL1     H21C     HAL3     0.900000E-01   1.00800           0
       451 MEMB     4        CHL1     C22      CTL2    -0.180000       12.0110           0
       452 MEMB     4        CHL1     H22A     HAL2     0.900000E-01   1.00800           0
       453 MEMB     4        CHL1     H22B     HAL2     0.900000E-01   1.00800           0
       454 MEMB     4        CHL1     C23      CTL2    -0.180000       12.0110           0
       455 MEMB     4        CHL1     H23A     HAL2     0.900000E-01   1.00800           0
       456 MEMB     4        CHL1     H23B     HAL2     0.900000E-01   1.00800           0
       457 MEMB     4        CHL1     C24      CTL2    -0.180000       12.0110           0
       458 MEMB     4        CHL1     H24A     HAL2     0.900000E-01   1.00800           0
       459 MEMB     4        CHL1     H24B     HAL2     0.900000E-01   1.00800           0
       460 MEMB     4        CHL1     C25      CTL1    -0.900000E-01   12.0110           0
       461 MEMB     4        CHL1     H25      HAL1     0.900000E-01   1.00800           0
       462 MEMB     4        CHL1     C26      CTL3    -0.270000       12.0110           0
       463 MEMB     4        CHL1     H26A     HAL3     0.900000E-01   1.00800           0
       464 MEMB     4        CHL1     H26B     HAL3     0.900000E-01   1.00800           0
       465 MEMB     4        CHL1     H26C     HAL3     0.900000E-01   1.00800           0
       466 MEMB     4        CHL1     C27      CTL3    -0.270000       12.0110           0
       467 MEMB     4        CHL1     H27A     HAL3     0.900000E-01   1.00800           0
       468 MEMB     4        CHL1     H27B     HAL3     0.900000E-01   1.00800           0
       469 MEMB     4        CHL1     H27C     HAL3     0.900000E-01   1.00800           0
       470 MEMB     5        SAPE     N        NH3L    -0.300000       14.0070           0
       471 MEMB     5        SAPE     HN1      HCL      0.330000       1.00800           0
       472 MEMB     5        SAPE     HN2      HCL      0.330000       1.00800           0
       473 MEMB     5        SAPE     HN3      HCL      0.330000       1.00800           0
       474 MEMB     5        SAPE     C12      CTL2     0.130000       12.0110           0
       475 MEMB     5        SAPE     H12A     HAL2     0.900000E-01   1.00800           0
       476 MEMB     5        SAPE     H12B     HAL2     0.900000E-01   1.00800           0
       477 MEMB     5        SAPE     C11      CTL2    -0.800000E-01   12.0110           0
       478 MEMB     5        SAPE     H11A     HAL2     0.900000E-01   1.00800           0
       479 MEMB     5        SAPE     H11B     HAL2     0.900000E-01   1.00800           0
       480 MEMB     5        SAPE     P        PL        1.50000       30.9740           0
       481 MEMB     5        SAPE     O13      O2L     -0.780000       15.9994           0
       482 MEMB     5        SAPE     O14      O2L     -0.780000       15.9994           0
       483 MEMB     5        SAPE     O12      OSLP    -0.570000       15.9994           0
       484 MEMB     5        SAPE     O11      OSLP    -0.570000       15.9994           0
       485 MEMB     5        SAPE     C1       CTL2    -0.800000E-01   12.0110           0
       486 MEMB     5        SAPE     HA       HAL2     0.900000E-01   1.00800           0
       487 MEMB     5        SAPE     HB       HAL2     0.900000E-01   1.00800           0
       488 MEMB     5        SAPE     C2       CTL1     0.170000       12.0110           0
       489 MEMB     5        SAPE     HS       HAL1     0.900000E-01   1.00800           0
       490 MEMB     5        SAPE     O21      OSL     -0.490000       15.9994           0
       491 MEMB     5        SAPE     C21      CL       0.900000       12.0110           0
       492 MEMB     5        SAPE     O22      OBL     -0.630000       15.9994           0
       493 MEMB     5        SAPE     C22      CTL2    -0.220000       12.0110           0
       494 MEMB     5        SAPE     H2R      HAL2     0.900000E-01   1.00800           0
       495 MEMB     5        SAPE     H2S      HAL2     0.900000E-01   1.00800           0
       496 MEMB     5        SAPE     C3       CTL2     0.800000E-01   12.0110           0
       497 MEMB     5        SAPE     HX       HAL2     0.900000E-01   1.00800           0
       498 MEMB     5        SAPE     HY       HAL2     0.900000E-01   1.00800           0
       499 MEMB     5        SAPE     O31      OSL     -0.490000       15.9994           0
       500 MEMB     5        SAPE     C31      CL       0.900000       12.0110           0
       501 MEMB     5        SAPE     O32      OBL     -0.630000       15.9994           0
       502 MEMB     5        SAPE     C32      CTL2    -0.220000       12.0110           0
       503 MEMB     5        SAPE     H2X      HAL2     0.900000E-01   1.00800           0
       504 MEMB     5        SAPE     H2Y      HAL2     0.900000E-01   1.00800           0
       505 MEMB     5        SAPE     C23      CTL2    -0.180000       12.0110           0
       506 MEMB     5        SAPE     H3R      HAL2     0.900000E-01   1.00800           0
       507 MEMB     5        SAPE     H3S      HAL2     0.900000E-01   1.00800           0
       508 MEMB     5        SAPE     C24      CTL2    -0.180000       12.0110           0
       509 MEMB     5        SAPE     H4R      HAL2     0.900000E-01   1.00800           0
       510 MEMB     5        SAPE     H4S      HAL2     0.900000E-01   1.00800           0
       511 MEMB     5        SAPE     C25      CEL1    -0.150000       12.0110           0
       512 MEMB     5        SAPE     H5R      HEL1     0.150000       1.00800           0
       513 MEMB     5        SAPE     C26      CEL1    -0.150000       12.0110           0
       514 MEMB     5        SAPE     H6R      HEL1     0.150000       1.00800           0
       515 MEMB     5        SAPE     C27      CTL2    -0.180000       12.0110           0
       516 MEMB     5        SAPE     H7R      HAL2     0.900000E-01   1.00800           0
       517 MEMB     5        SAPE     H7S      HAL2     0.900000E-01   1.00800           0
       518 MEMB     5        SAPE     C28      CEL1    -0.150000       12.0110           0
       519 MEMB     5        SAPE     H8R      HEL1     0.150000       1.00800           0
       520 MEMB     5        SAPE     C29      CEL1    -0.150000       12.0110           0
       521 MEMB     5        SAPE     H9R      HEL1     0.150000       1.00800           0
       522 MEMB     5        SAPE     C210     CTL2    -0.180000       12.0110           0
       523 MEMB     5        SAPE     H10R     HAL2     0.900000E-01   1.00800           0
       524 MEMB     5        SAPE     H10S     HAL2     0.900000E-01   1.00800           0
       525 MEMB     5        SAPE     C211     CEL1    -0.150000       12.0110           0
       526 MEMB     5        SAPE     H11R     HEL1     0.150000       1.00800           0
       527 MEMB     5        SAPE     C212     CEL1    -0.150000       12.0110           0
       528 MEMB     5        SAPE     H12R     HEL1     0.150000       1.00800           0
       529 MEMB     5        SAPE     C213     CTL2    -0.180000       12.0110           0
       530 MEMB     5        SAPE     H13R     HAL2     0.900000E-01   1.00800           0
       531 MEMB     5        SAPE     H13S     HAL2     0.900000E-01   1.00800           0
       532 MEMB     5        SAPE     C214     CEL1    -0.150000       12.0110           0
       533 MEMB     5        SAPE     H14R     HEL1     0.150000       1.00800           0
       534 MEMB     5        SAPE     C215     CEL1    -0.150000       12.0110           0
       535 MEMB     5        SAPE     H15R     HEL1     0.150000       1.00800           0
       536 MEMB     5        SAPE     C216     CTL2    -0.180000       12.0110           0
       537 MEMB     5        SAPE     H16R     HAL2     0.900000E-01   1.00800           0
       538 MEMB     5        SAPE     H16S     HAL2     0.900000E-01   1.00800           0
       539 MEMB     5        SAPE     C217     CTL2    -0.180000       12.0110           0
       540 MEMB     5        SAPE     H17R     HAL2     0.900000E-01   1.00800           0
       541 MEMB     5        SAPE     H17S     HAL2     0.900000E-01   1.00800           0
       542 MEMB     5        SAPE     C218     CTL2    -0.180000       12.0110           0
       543 MEMB     5        SAPE     H18R     HAL2     0.900000E-01   1.00800           0
       544 MEMB     5        SAPE     H18S     HAL2     0.900000E-01   1.00800           0
       545 MEMB     5        SAPE     C219     CTL2    -0.180000       12.0110           0
       546 MEMB     5        SAPE     H19R     HAL2     0.900000E-01   1.00800           0
       547 MEMB     5        SAPE     H19S     HAL2     0.900000E-01   1.00800           0
       548 MEMB     5        SAPE     C220     CTL3    -0.270000       12.0110           0
       549 MEMB     5        SAPE     H20R     HAL3     0.900000E-01   1.00800           0
       550 MEMB     5        SAPE     H20S     HAL3     0.900000E-01   1.00800           0
       551 MEMB     5        SAPE     H20T     HAL3     0.900000E-01   1.00800           0
       552 MEMB     5        SAPE     C33      CTL2    -0.180000       12.0110           0
       553 MEMB     5        SAPE     H3X      HAL2     0.900000E-01   1.00800           0
       554 MEMB     5        SAPE     H3Y      HAL2     0.900000E-01   1.00800           0
       555 MEMB     5        SAPE     C34      CTL2    -0.180000       12.0110           0
       556 MEMB     5        SAPE     H4X      HAL2     0.900000E-01   1.00800           0
       557 MEMB     5        SAPE     H4Y      HAL2     0.900000E-01   1.00800           0
       558 MEMB     5        SAPE     C35      CTL2    -0.180000       12.0110           0
       559 MEMB     5        SAPE     H5X      HAL2     0.900000E-01   1.00800           0
       560 MEMB     5        SAPE     H5Y      HAL2     0.900000E-01   1.00800           0
       561 MEMB     5        SAPE     C36      CTL2    -0.180000       12.0110           0
       562 MEMB     5        SAPE     H6X      HAL2     0.900000E-01   1.00800           0
       563 MEMB     5        SAPE     H6Y      HAL2     0.900000E-01   1.00800           0
       564 MEMB     5        SAPE     C37      CTL2    -0.180000       12.0110           0
       565 MEMB     5        SAPE     H7X      HAL2     0.900000E-01   1.00800           0
       566 MEMB     5        SAPE     H7Y      HAL2     0.900000E-01   1.00800           0
       567 MEMB     5        SAPE     C38      CTL2    -0.180000       12.0110           0
       568 MEMB     5        SAPE     H8X      HAL2     0.900000E-01   1.00800           0
       569 MEMB     5        SAPE     H8Y      HAL2     0.900000E-01   1.00800           0
       570 MEMB     5        SAPE     C39      CTL2    -0.180000       12.0110           0
       571 MEMB     5        SAPE     H9X      HAL2     0.900000E-01   1.00800           0
       572 MEMB     5        SAPE     H9Y      HAL2     0.900000E-01   1.00800           0
       573 MEMB     5        SAPE     C310     CTL2    -0.180000       12.0110           0
       574 MEMB     5        SAPE     H10X     HAL2     0.900000E-01   1.00800           0
       575 MEMB     5        SAPE     H10Y     HAL2     0.900000E-01   1.00800           0
       576 MEMB     5        SAPE     C311     CTL2    -0.180000       12.0110           0
       577 MEMB     5        SAPE     H11X     HAL2     0.900000E-01   1.00800           0
       578 MEMB     5        SAPE     H11Y     HAL2     0.900000E-01   1.00800           0
       579 MEMB     5        SAPE     C312     CTL2    -0.180000       12.0110           0
       580 MEMB     5        SAPE     H12X     HAL2     0.900000E-01   1.00800           0
       581 MEMB     5        SAPE     H12Y     HAL2     0.900000E-01   1.00800           0
       582 MEMB     5        SAPE     C313     CTL2    -0.180000       12.0110           0
       583 MEMB     5        SAPE     H13X     HAL2     0.900000E-01   1.00800           0
       584 MEMB     5        SAPE     H13Y     HAL2     0.900000E-01   1.00800           0
       585 MEMB     5        SAPE     C314     CTL2    -0.180000       12.0110           0
       586 MEMB     5        SAPE     H14X     HAL2     0.900000E-01   1.00800           0
       587 MEMB     5        SAPE     H14Y     HAL2     0.900000E-01   1.00800           0
       588 MEMB     5        SAPE     C315     CTL2    -0.180000       12.0110           0
       589 MEMB     5        SAPE     H15X     HAL2     0.900000E-01   1.00800           0
       590 MEMB     5        SAPE     H15Y     HAL2     0.900000E-01   1.00800           0
       591 MEMB     5        SAPE     C316     CTL2    -0.180000       12.0110           0
       592 MEMB     5        SAPE     H16X     HAL2     0.900000E-01   1.00800           0
       593 MEMB     5        SAPE     H16Y     HAL2     0.900000E-01   1.00800           0
       594 MEMB     5        SAPE     C317     CTL2    -0.180000       12.0110           0
       595 MEMB     5        SAPE     H17X     HAL2     0.900000E-01   1.00800           0
       596 MEMB     5        SAPE     H17Y     HAL2     0.900000E-01   1.00800           0
       597 MEMB     5        SAPE     C318     CTL3    -0.270000       12.0110           0
       598 MEMB     5        SAPE     H18X     HAL3     0.900000E-01   1.00800           0
       599 MEMB     5        SAPE     H18Y     HAL3     0.900000E-01   1.00800           0
       600 MEMB     5        SAPE     H18Z     HAL3     0.900000E-01   1.00800           0
       601 MEMB     6        CHL1     C3       CRL1     0.140000       12.0110           0
       602 MEMB     6        CHL1     H3       HGA1     0.900000E-01   1.00800           0
       603 MEMB     6        CHL1     O3       OHL     -0.660000       15.9994           0
       604 MEMB     6        CHL1     H3'      HOL      0.430000       1.00800           0
       605 MEMB     6        CHL1     C4       CRL2    -0.180000       12.0110           0
       606 MEMB     6        CHL1     H4A      HGA2     0.900000E-01   1.00800           0
       607 MEMB     6        CHL1     H4B      HGA2     0.900000E-01   1.00800           0
       608 MEMB     6        CHL1     C5       CEL1      0.00000       12.0110           0
       609 MEMB     6        CHL1     C6       CEL1    -0.150000       12.0110           0
       610 MEMB     6        CHL1     H6       HEL1     0.150000       1.00800           0
       611 MEMB     6        CHL1     C7       CRL2    -0.180000       12.0110           0
       612 MEMB     6        CHL1     H7A      HGA2     0.900000E-01   1.00800           0
       613 MEMB     6        CHL1     H7B      HGA2     0.900000E-01   1.00800           0
       614 MEMB     6        CHL1     C8       CRL1    -0.900000E-01   12.0110           0
       615 MEMB     6        CHL1     H8       HGA1     0.900000E-01   1.00800           0
       616 MEMB     6        CHL1     C14      CRL1    -0.900000E-01   12.0110           0
       617 MEMB     6        CHL1     H14      HGA1     0.900000E-01   1.00800           0
       618 MEMB     6        CHL1     C15      CRL2    -0.180000       12.0110           0
       619 MEMB     6        CHL1     H15A     HGA2     0.900000E-01   1.00800           0
       620 MEMB     6        CHL1     H15B     HGA2     0.900000E-01   1.00800           0
       621 MEMB     6        CHL1     C16      CRL2    -0.180000       12.0110           0
       622 MEMB     6        CHL1     H16A     HGA2     0.900000E-01   1.00800           0
       623 MEMB     6        CHL1     H16B     HGA2     0.900000E-01   1.00800           0
       624 MEMB     6        CHL1     C17      CRL1    -0.900000E-01   12.0110           0
       625 MEMB     6        CHL1     H17      HGA1     0.900000E-01   1.00800           0
       626 MEMB     6        CHL1     C13      CRL1      0.00000       12.0110           0
       627 MEMB     6        CHL1     C18      CTL3    -0.270000       12.0110           0
       628 MEMB     6        CHL1     H18A     HAL3     0.900000E-01   1.00800           0
       629 MEMB     6        CHL1     H18B     HAL3     0.900000E-01   1.00800           0
       630 MEMB     6        CHL1     H18C     HAL3     0.900000E-01   1.00800           0
       631 MEMB     6        CHL1     C12      CRL2    -0.180000       12.0110           0
       632 MEMB     6        CHL1     H12A     HGA2     0.900000E-01   1.00800           0
       633 MEMB     6        CHL1     H12B     HGA2     0.900000E-01   1.00800           0
       634 MEMB     6        CHL1     C11      CRL2    -0.180000       12.0110           0
       635 MEMB     6        CHL1     H11A     HGA2     0.900000E-01   1.00800           0
       636 MEMB     6        CHL1     H11B     HGA2     0.900000E-01   1.00800           0
       637 MEMB     6        CHL1     C9       CRL1    -0.900000E-01   12.0110           0
       638 MEMB     6        CHL1     H9       HGA1     0.900000E-01   1.00800           0
       639 MEMB     6        CHL1     C10      CRL1      0.00000       12.0110           0
       640 MEMB     6        CHL1     C19      CTL3    -0.270000       12.0110           0
       641 MEMB     6        CHL1     H19A     HAL3     0.900000E-01   1.00800           0
       642 MEMB     6        CHL1     H19B     HAL3     0.900000E-01   1.00800           0
       643 MEMB     6        CHL1     H19C     HAL3     0.900000E-01   1.00800           0
       644 MEMB     6        CHL1     C1       CRL2    -0.180000       12.0110           0
       645 MEMB     6        CHL1     H1A      HGA2     0.900000E-01   1.00800           0
       646 MEMB     6        CHL1     H1B      HGA2     0.900000E-01   1.00800           0
       647 MEMB     6        CHL1     C2       CRL2    -0.180000       12.0110           0
       648 MEMB     6        CHL1     H2A      HGA2     0.900000E-01   1.00800           0
       649 MEMB     6        CHL1     H2B      HGA2     0.900000E-01   1.00800           0
       650 MEMB     6        CHL1     C20      CTL1    -0.900000E-01   12.0110           0
       651 MEMB     6        CHL1     H20      HAL1     0.900000E-01   1.00800           0
       652 MEMB     6        CHL1     C21      CTL3    -0.270000       12.0110           0
       653 MEMB     6        CHL1     H21A     HAL3     0.900000E-01   1.00800           0
       654 MEMB     6        CHL1     H21B     HAL3     0.900000E-01   1.00800           0
       655 MEMB     6        CHL1     H21C     HAL3     0.900000E-01   1.00800           0
       656 MEMB     6        CHL1     C22      CTL2    -0.180000       12.0110           0
       657 MEMB     6        CHL1     H22A     HAL2     0.900000E-01   1.00800           0
       658 MEMB     6        CHL1     H22B     HAL2     0.900000E-01   1.00800           0
       659 MEMB     6        CHL1     C23      CTL2    -0.180000       12.0110           0
       660 MEMB     6        CHL1     H23A     HAL2     0.900000E-01   1.00800           0
       661 MEMB     6        CHL1     H23B     HAL2     0.900000E-01   1.00800           0
       662 MEMB     6        CHL1     C24      CTL2    -0.180000       12.0110           0
       663 MEMB     6        CHL1     H24A     HAL2     0.900000E-01   1.00800           0
       664 MEMB     6        CHL1     H24B     HAL2     0.900000E-01   1.00800           0
       665 MEMB     6        CHL1     C25      CTL1    -0.900000E-01   12.0110           0
       666 MEMB     6        CHL1     H25      HAL1     0.900000E-01   1.00800           0
       667 MEMB     6        CHL1     C26      CTL3    -0.270000       12.0110           0
       668 MEMB     6        CHL1     H26A     HAL3     0.900000E-01   1.00800           0
       669 MEMB     6        CHL1     H26B     HAL3     0.900000E-01   1.00800           0
       670 MEMB     6        CHL1     H26C     HAL3     0.900000E-01   1.00800           0
       671 MEMB     6        CHL1     C27      CTL3    -0.270000       12.0110           0
       672 MEMB     6        CHL1     H27A     HAL3     0.900000E-01   1.00800           0
       673 MEMB     6        CHL1     H27B     HAL3     0.900000E-01   1.00800           0
       674 MEMB     6        CHL1     H27C     HAL3     0.900000E-01   1.00800           0
       675 MEMB     7        OSM      N        NTL     -0.600000       14.0070           0
       676 MEMB     7        OSM      C15      CTL5    -0.350000       12.0110           0
       677 MEMB     7        OSM      H15A     HL       0.250000       1.00800           0
       678 MEMB     7        OSM      H15B     HL       0.250000       1.00800           0
       679 MEMB     7        OSM      H15C     HL       0.250000       1.00800           0
       680 MEMB     7        OSM      C14      CTL5    -0.350000       12.0110           0
       681 MEMB     7        OSM      H14A     HL       0.250000       1.00800           0
       682 MEMB     7        OSM      H14B     HL       0.250000       1.00800           0
       683 MEMB     7        OSM      H14C     HL       0.250000       1.00800           0
       684 MEMB     7        OSM      C13      CTL5    -0.350000       12.0110           0
       685 MEMB     7        OSM      H13A     HL       0.250000       1.00800           0
       686 MEMB     7        OSM      H13B     HL       0.250000       1.00800           0
       687 MEMB     7        OSM      H13C     HL       0.250000       1.00800           0
       688 MEMB     7        OSM      C12      CTL2    -0.100000       12.0110           0
       689 MEMB     7        OSM      H12A     HL       0.250000       1.00800           0
       690 MEMB     7        OSM      H12B     HL       0.250000       1.00800           0
       691 MEMB     7        OSM      C11      CTL2    -0.800000E-01   12.0110           0
       692 MEMB     7        OSM      H11A     HAL2     0.900000E-01   1.00800           0
       693 MEMB     7        OSM      H11B     HAL2     0.900000E-01   1.00800           0
       694 MEMB     7        OSM      P        PL        1.50000       30.9740           0
       695 MEMB     7        OSM      O13      O2L     -0.780000       15.9994           0
       696 MEMB     7        OSM      O14      O2L     -0.780000       15.9994           0
       697 MEMB     7        OSM      O11      OSLP    -0.570000       15.9994           0
       698 MEMB     7        OSM      O12      OSLP    -0.570000       15.9994           0
       699 MEMB     7        OSM      C1S      CTL2    -0.800000E-01   12.0110           0
       700 MEMB     7        OSM      H1S      HAL2     0.900000E-01   1.00800           0
       701 MEMB     7        OSM      H1T      HAL2     0.900000E-01   1.00800           0
       702 MEMB     7        OSM      NF       NHL     -0.700000       14.0070           0
       703 MEMB     7        OSM      HNF      H        0.350000       1.00800           0
       704 MEMB     7        OSM      C2S      CTL1     0.300000       12.0110           0
       705 MEMB     7        OSM      H2S      HAL1     0.500000E-01   1.00800           0
       706 MEMB     7        OSM      C3S      CTO1     0.500000       12.0110           0
       707 MEMB     7        OSM      H3S      HAL1    -0.110000       1.00800           0
       708 MEMB     7        OSM      O3       OHL     -0.690000       15.9994           0
       709 MEMB     7        OSM      HO3      HOL      0.300000       1.00800           0
       710 MEMB     7        OSM      C4S      CEL3    -0.150000       12.0110           0
       711 MEMB     7        OSM      H4S      HEL1     0.150000       1.00800           0
       712 MEMB     7        OSM      C5S      CEL3    -0.150000       12.0110           0
       713 MEMB     7        OSM      H5S      HEL1     0.150000       1.00800           0
       714 MEMB     7        OSM      C6S      CTL2    -0.180000       12.0110           0
       715 MEMB     7        OSM      H6S      HAL2     0.900000E-01   1.00800           0
       716 MEMB     7        OSM      H6T      HAL2     0.900000E-01   1.00800           0
       717 MEMB     7        OSM      C7S      CTL2    -0.180000       12.0110           0
       718 MEMB     7        OSM      H7S      HAL2     0.900000E-01   1.00800           0
       719 MEMB     7        OSM      H7T      HAL2     0.900000E-01   1.00800           0
       720 MEMB     7        OSM      C8S      CTL2    -0.180000       12.0110           0
       721 MEMB     7        OSM      H8S      HAL2     0.900000E-01   1.00800           0
       722 MEMB     7        OSM      H8T      HAL2     0.900000E-01   1.00800           0
       723 MEMB     7        OSM      C9S      CTL2    -0.180000       12.0110           0
       724 MEMB     7        OSM      H9S      HAL2     0.900000E-01   1.00800           0
       725 MEMB     7        OSM      H9T      HAL2     0.900000E-01   1.00800           0
       726 MEMB     7        OSM      C10S     CTL2    -0.180000       12.0110           0
       727 MEMB     7        OSM      H10S     HAL2     0.900000E-01   1.00800           0
       728 MEMB     7        OSM      H10T     HAL2     0.900000E-01   1.00800           0
       729 MEMB     7        OSM      C11S     CTL2    -0.180000       12.0110           0
       730 MEMB     7        OSM      H11S     HAL2     0.900000E-01   1.00800           0
       731 MEMB     7        OSM      H11T     HAL2     0.900000E-01   1.00800           0
       732 MEMB     7        OSM      C12S     CTL2    -0.180000       12.0110           0
       733 MEMB     7        OSM      H12S     HAL2     0.900000E-01   1.00800           0
       734 MEMB     7        OSM      H12T     HAL2     0.900000E-01   1.00800           0
       735 MEMB     7        OSM      C13S     CTL2    -0.180000       12.0110           0
       736 MEMB     7        OSM      H13S     HAL2     0.900000E-01   1.00800           0
       737 MEMB     7        OSM      H13T     HAL2     0.900000E-01   1.00800           0
       738 MEMB     7        OSM      C14S     CTL2    -0.180000       12.0110           0
       739 MEMB     7        OSM      H14S     HAL2     0.900000E-01   1.00800           0
       740 MEMB     7        OSM      H14T     HAL2     0.900000E-01   1.00800           0
       741 MEMB     7        OSM      C15S     CTL2    -0.180000       12.0110           0
       742 MEMB     7        OSM      H15S     HAL2     0.900000E-01   1.00800           0
       743 MEMB     7        OSM      H15T     HAL2     0.900000E-01   1.00800           0
       744 MEMB     7        OSM      C16S     CTL2    -0.180000       12.0110           0
       745 MEMB     7        OSM      H16S     HAL2     0.900000E-01   1.00800           0
       746 MEMB     7        OSM      H16T     HAL2     0.900000E-01   1.00800           0
       747 MEMB     7        OSM      C17S     CTL2    -0.180000       12.0110           0
       748 MEMB     7        OSM      H17S     HAL2     0.900000E-01   1.00800           0
       749 MEMB     7        OSM      H17T     HAL2     0.900000E-01   1.00800           0
       750 MEMB     7        OSM      C18S     CTL3    -0.270000       12.0110           0
       751 MEMB     7        OSM      H18S     HAL3     0.900000E-01   1.00800           0
       752 MEMB     7        OSM      H18T     HAL3     0.900000E-01   1.00800           0
       753 MEMB     7        OSM      H18U     HAL3     0.900000E-01   1.00800           0
       754 MEMB     7        OSM      C1F      C        0.550000       12.0110           0
       755 MEMB     7        OSM      OF       O       -0.600000       15.9994           0
       756 MEMB     7        OSM      C2F      CTL2    -0.700000E-01   12.0110           0
       757 MEMB     7        OSM      H2F      HAL2     0.600000E-01   1.00800           0
       758 MEMB     7        OSM      H2G      HAL2     0.600000E-01   1.00800           0
       759 MEMB     7        OSM      C3F      CTL2    -0.180000       12.0110           0
       760 MEMB     7        OSM      H3F      HAL2     0.900000E-01   1.00800           0
       761 MEMB     7        OSM      H3G      HAL2     0.900000E-01   1.00800           0
       762 MEMB     7        OSM      C4F      CTL2    -0.180000       12.0110           0
       763 MEMB     7        OSM      H4F      HAL2     0.900000E-01   1.00800           0
       764 MEMB     7        OSM      H4G      HAL2     0.900000E-01   1.00800           0
       765 MEMB     7        OSM      C5F      CTL2    -0.180000       12.0110           0
       766 MEMB     7        OSM      H5F      HAL2     0.900000E-01   1.00800           0
       767 MEMB     7        OSM      H5G      HAL2     0.900000E-01   1.00800           0
       768 MEMB     7        OSM      C6F      CTL2    -0.180000       12.0110           0
       769 MEMB     7        OSM      H6F      HAL2     0.900000E-01   1.00800           0
       770 MEMB     7        OSM      H6G      HAL2     0.900000E-01   1.00800           0
       771 MEMB     7        OSM      C7F      CTL2    -0.180000       12.0110           0
       772 MEMB     7        OSM      H7F      HAL2     0.900000E-01   1.00800           0
       773 MEMB     7        OSM      H7G      HAL2     0.900000E-01   1.00800           0
       774 MEMB     7        OSM      C8F      CTL2    -0.180000       12.0110           0
       775 MEMB     7        OSM      H8F      HAL2     0.900000E-01   1.00800           0
       776 MEMB     7        OSM      H8G      HAL2     0.900000E-01   1.00800           0
       777 MEMB     7        OSM      C9F      CEL1    -0.150000       12.0110           0
       778 MEMB     7        OSM      H9F      HEL1     0.150000       1.00800           0
       779 MEMB     7        OSM      C10F     CEL1    -0.150000       12.0110           0
       780 MEMB     7        OSM      H10F     HEL1     0.150000       1.00800           0
       781 MEMB     7        OSM      C11F     CTL2    -0.180000       12.0110           0
       782 MEMB     7        OSM      H11F     HAL2     0.900000E-01   1.00800           0
       783 MEMB     7        OSM      H11G     HAL2     0.900000E-01   1.00800           0
       784 MEMB     7        OSM      C12F     CTL2    -0.180000       12.0110           0
       785 MEMB     7        OSM      H12F     HAL2     0.900000E-01   1.00800           0
       786 MEMB     7        OSM      H12G     HAL2     0.900000E-01   1.00800           0
       787 MEMB     7        OSM      C13F     CTL2    -0.180000       12.0110           0
       788 MEMB     7        OSM      H13F     HAL2     0.900000E-01   1.00800           0
       789 MEMB     7        OSM      H13G     HAL2     0.900000E-01   1.00800           0
       790 MEMB     7        OSM      C14F     CTL2    -0.180000       12.0110           0
       791 MEMB     7        OSM      H14F     HAL2     0.900000E-01   1.00800           0
       792 MEMB     7        OSM      H14G     HAL2     0.900000E-01   1.00800           0
       793 MEMB     7        OSM      C15F     CTL2    -0.180000       12.0110           0
       794 MEMB     7        OSM      H15F     HAL2     0.900000E-01   1.00800           0
       795 MEMB     7        OSM      H15G     HAL2     0.900000E-01   1.00800           0
       796 MEMB     7        OSM      C16F     CTL2    -0.180000       12.0110           0
       797 MEMB     7        OSM      H16F     HAL2     0.900000E-01   1.00800           0
       798 MEMB     7        OSM      H16G     HAL2     0.900000E-01   1.00800           0
       799 MEMB     7        OSM      C17F     CTL2    -0.180000       12.0110           0
       800 MEMB     7        OSM      H17F     HAL2     0.900000E-01   1.00800           0
       801 MEMB     7        OSM      H17G     HAL2     0.900000E-01   1.00800           0
       802 MEMB     7        OSM      C18F     CTL3    -0.270000       12.0110           0
       803 MEMB     7        OSM      H18F     HAL3     0.900000E-01   1.00800           0
       804 MEMB     7        OSM      H18G     HAL3     0.900000E-01   1.00800           0
       805 MEMB     7        OSM      H18H     HAL3     0.900000E-01   1.00800           0
       806 MEMB     8        CHL1     C3       CRL1     0.140000       12.0110           0
       807 MEMB     8        CHL1     H3       HGA1     0.900000E-01   1.00800           0
       808 MEMB     8        CHL1     O3       OHL     -0.660000       15.9994           0
       809 MEMB     8        CHL1     H3'      HOL      0.430000       1.00800           0
       810 MEMB     8        CHL1     C4       CRL2    -0.180000       12.0110           0
       811 MEMB     8        CHL1     H4A      HGA2     0.900000E-01   1.00800           0
       812 MEMB     8        CHL1     H4B      HGA2     0.900000E-01   1.00800           0
       813 MEMB     8        CHL1     C5       CEL1      0.00000       12.0110           0
       814 MEMB     8        CHL1     C6       CEL1    -0.150000       12.0110           0
       815 MEMB     8        CHL1     H6       HEL1     0.150000       1.00800           0
       816 MEMB     8        CHL1     C7       CRL2    -0.180000       12.0110           0
       817 MEMB     8        CHL1     H7A      HGA2     0.900000E-01   1.00800           0
       818 MEMB     8        CHL1     H7B      HGA2     0.900000E-01   1.00800           0
       819 MEMB     8        CHL1     C8       CRL1    -0.900000E-01   12.0110           0
       820 MEMB     8        CHL1     H8       HGA1     0.900000E-01   1.00800           0
       821 MEMB     8        CHL1     C14      CRL1    -0.900000E-01   12.0110           0
       822 MEMB     8        CHL1     H14      HGA1     0.900000E-01   1.00800           0
       823 MEMB     8        CHL1     C15      CRL2    -0.180000       12.0110           0
       824 MEMB     8        CHL1     H15A     HGA2     0.900000E-01   1.00800           0
       825 MEMB     8        CHL1     H15B     HGA2     0.900000E-01   1.00800           0
       826 MEMB     8        CHL1     C16      CRL2    -0.180000       12.0110           0
       827 MEMB     8        CHL1     H16A     HGA2     0.900000E-01   1.00800           0
       828 MEMB     8        CHL1     H16B     HGA2     0.900000E-01   1.00800           0
       829 MEMB     8        CHL1     C17      CRL1    -0.900000E-01   12.0110           0
       830 MEMB     8        CHL1     H17      HGA1     0.900000E-01   1.00800           0
       831 MEMB     8        CHL1     C13      CRL1      0.00000       12.0110           0
       832 MEMB     8        CHL1     C18      CTL3    -0.270000       12.0110           0
       833 MEMB     8        CHL1     H18A     HAL3     0.900000E-01   1.00800           0
       834 MEMB     8        CHL1     H18B     HAL3     0.900000E-01   1.00800           0
       835 MEMB     8        CHL1     H18C     HAL3     0.900000E-01   1.00800           0
       836 MEMB     8        CHL1     C12      CRL2    -0.180000       12.0110           0
       837 MEMB     8        CHL1     H12A     HGA2     0.900000E-01   1.00800           0
       838 MEMB     8        CHL1     H12B     HGA2     0.900000E-01   1.00800           0
       839 MEMB     8        CHL1     C11      CRL2    -0.180000       12.0110           0
       840 MEMB     8        CHL1     H11A     HGA2     0.900000E-01   1.00800           0
       841 MEMB     8        CHL1     H11B     HGA2     0.900000E-01   1.00800           0
       842 MEMB     8        CHL1     C9       CRL1    -0.900000E-01   12.0110           0
       843 MEMB     8        CHL1     H9       HGA1     0.900000E-01   1.00800           0
       844 MEMB     8        CHL1     C10      CRL1      0.00000       12.0110           0
       845 MEMB     8        CHL1     C19      CTL3    -0.270000       12.0110           0
       846 MEMB     8        CHL1     H19A     HAL3     0.900000E-01   1.00800           0
       847 MEMB     8        CHL1     H19B     HAL3     0.900000E-01   1.00800           0
       848 MEMB     8        CHL1     H19C     HAL3     0.900000E-01   1.00800           0
       849 MEMB     8        CHL1     C1       CRL2    -0.180000       12.0110           0
       850 MEMB     8        CHL1     H1A      HGA2     0.900000E-01   1.00800           0
       851 MEMB     8        CHL1     H1B      HGA2     0.900000E-01   1.00800           0
       852 MEMB     8        CHL1     C2       CRL2    -0.180000       12.0110           0
       853 MEMB     8        CHL1     H2A      HGA2     0.900000E-01   1.00800           0
       854 MEMB     8        CHL1     H2B      HGA2     0.900000E-01   1.00800           0
       855 MEMB     8        CHL1     C20      CTL1    -0.900000E-01   12.0110           0
       856 MEMB     8        CHL1     H20      HAL1     0.900000E-01   1.00800           0
       857 MEMB     8        CHL1     C21      CTL3    -0.270000       12.0110           0
       858 MEMB     8        CHL1     H21A     HAL3     0.900000E-01   1.00800           0
       859 MEMB     8        CHL1     H21B     HAL3     0.900000E-01   1.00800           0
       860 MEMB     8        CHL1     H21C     HAL3     0.900000E-01   1.00800           0
       861 MEMB     8        CHL1     C22      CTL2    -0.180000       12.0110           0
       862 MEMB     8        CHL1     H22A     HAL2     0.900000E-01   1.00800           0
       863 MEMB     8        CHL1     H22B     HAL2     0.900000E-01   1.00800           0
       864 MEMB     8        CHL1     C23      CTL2    -0.180000       12.0110           0
       865 MEMB     8        CHL1     H23A     HAL2     0.900000E-01   1.00800           0
       866 MEMB     8        CHL1     H23B     HAL2     0.900000E-01   1.00800           0
       867 MEMB     8        CHL1     C24      CTL2    -0.180000       12.0110           0
       868 MEMB     8        CHL1     H24A     HAL2     0.900000E-01   1.00800           0
       869 MEMB     8        CHL1     H24B     HAL2     0.900000E-01   1.00800           0
       870 MEMB     8        CHL1     C25      CTL1    -0.900000E-01   12.0110           0
       871 MEMB     8        CHL1     H25      HAL1     0.900000E-01   1.00800           0
       872 MEMB     8        CHL1     C26      CTL3    -0.270000       12.0110           0
       873 MEMB     8        CHL1     H26A     HAL3     0.900000E-01   1.00800           0
       874 MEMB     8        CHL1     H26B     HAL3     0.900000E-01   1.00800           0
       875 MEMB     8        CHL1     H26C     HAL3     0.900000E-01   1.00800           0
       876 MEMB     8        CHL1     C27      CTL3    -0.270000       12.0110           0
       877 MEMB     8        CHL1     H27A     HAL3     0.900000E-01   1.00800           0
       878 MEMB     8        CHL1     H27B     HAL3     0.900000E-01   1.00800           0
       879 MEMB     8        CHL1     H27C     HAL3     0.900000E-01   1.00800           0
       880 MEMB     9        OSM      N        NTL     -0.600000       14.0070           0
       881 MEMB     9        OSM      C15      CTL5    -0.350000       12.0110           0
       882 MEMB     9        OSM      H15A     HL       0.250000       1.00800           0
       883 MEMB     9        OSM      H15B     HL       0.250000       1.00800           0
       884 MEMB     9        OSM      H15C     HL       0.250000       1.00800           0
       885 MEMB     9        OSM      C14      CTL5    -0.350000       12.0110           0
       886 MEMB     9        OSM      H14A     HL       0.250000       1.00800           0
       887 MEMB     9        OSM      H14B     HL       0.250000       1.00800           0
       888 MEMB     9        OSM      H14C     HL       0.250000       1.00800           0
       889 MEMB     9        OSM      C13      CTL5    -0.350000       12.0110           0
       890 MEMB     9        OSM      H13A     HL       0.250000       1.00800           0
       891 MEMB     9        OSM      H13B     HL       0.250000       1.00800           0
       892 MEMB     9        OSM      H13C     HL       0.250000       1.00800           0
       893 MEMB     9        OSM      C12      CTL2    -0.100000       12.0110           0
       894 MEMB     9        OSM      H12A     HL       0.250000       1.00800           0
       895 MEMB     9        OSM      H12B     HL       0.250000       1.00800           0
       896 MEMB     9        OSM      C11      CTL2    -0.800000E-01   12.0110           0
       897 MEMB     9        OSM      H11A     HAL2     0.900000E-01   1.00800           0
       898 MEMB     9        OSM      H11B     HAL2     0.900000E-01   1.00800           0
       899 MEMB     9        OSM      P        PL        1.50000       30.9740           0
       900 MEMB     9        OSM      O13      O2L     -0.780000       15.9994           0
       901 MEMB     9        OSM      O14      O2L     -0.780000       15.9994           0
       902 MEMB     9        OSM      O11      OSLP    -0.570000       15.9994           0
       903 MEMB     9        OSM      O12      OSLP    -0.570000       15.9994           0
       904 MEMB     9        OSM      C1S      CTL2    -0.800000E-01   12.0110           0
       905 MEMB     9        OSM      H1S      HAL2     0.900000E-01   1.00800           0
       906 MEMB     9        OSM      H1T      HAL2     0.900000E-01   1.00800           0
       907 MEMB     9        OSM      NF       NHL     -0.700000       14.0070           0
       908 MEMB     9        OSM      HNF      H        0.350000       1.00800           0
       909 MEMB     9        OSM      C2S      CTL1     0.300000       12.0110           0
       910 MEMB     9        OSM      H2S      HAL1     0.500000E-01   1.00800           0
       911 MEMB     9        OSM      C3S      CTO1     0.500000       12.0110           0
       912 MEMB     9        OSM      H3S      HAL1    -0.110000       1.00800           0
       913 MEMB     9        OSM      O3       OHL     -0.690000       15.9994           0
       914 MEMB     9        OSM      HO3      HOL      0.300000       1.00800           0
       915 MEMB     9        OSM      C4S      CEL3    -0.150000       12.0110           0
       916 MEMB     9        OSM      H4S      HEL1     0.150000       1.00800           0
       917 MEMB     9        OSM      C5S      CEL3    -0.150000       12.0110           0
       918 MEMB     9        OSM      H5S      HEL1     0.150000       1.00800           0
       919 MEMB     9        OSM      C6S      CTL2    -0.180000       12.0110           0
       920 MEMB     9        OSM      H6S      HAL2     0.900000E-01   1.00800           0
       921 MEMB     9        OSM      H6T      HAL2     0.900000E-01   1.00800           0
       922 MEMB     9        OSM      C7S      CTL2    -0.180000       12.0110           0
       923 MEMB     9        OSM      H7S      HAL2     0.900000E-01   1.00800           0
       924 MEMB     9        OSM      H7T      HAL2     0.900000E-01   1.00800           0
       925 MEMB     9        OSM      C8S      CTL2    -0.180000       12.0110           0
       926 MEMB     9        OSM      H8S      HAL2     0.900000E-01   1.00800           0
       927 MEMB     9        OSM      H8T      HAL2     0.900000E-01   1.00800           0
       928 MEMB     9        OSM      C9S      CTL2    -0.180000       12.0110           0
       929 MEMB     9        OSM      H9S      HAL2     0.900000E-01   1.00800           0
       930 MEMB     9        OSM      H9T      HAL2     0.900000E-01   1.00800           0
       931 MEMB     9        OSM      C10S     CTL2    -0.180000       12.0110           0
       932 MEMB     9        OSM      H10S     HAL2     0.900000E-01   1.00800           0
       933 MEMB     9        OSM      H10T     HAL2     0.900000E-01   1.00800           0
       934 MEMB     9        OSM      C11S     CTL2    -0.180000       12.0110           0
       935 MEMB     9        OSM      H11S     HAL2     0.900000E-01   1.00800           0
       936 MEMB     9        OSM      H11T     HAL2     0.900000E-01   1.00800           0
       937 MEMB     9        OSM      C12S     CTL2    -0.180000       12.0110           0
       938 MEMB     9        OSM      H12S     HAL2     0.900000E-01   1.00800           0
       939 MEMB     9        OSM      H12T     HAL2     0.900000E-01   1.00800           0
       940 MEMB     9        OSM      C13S     CTL2    -0.180000       12.0110           0
       941 MEMB     9        OSM      H13S     HAL2     0.900000E-01   1.00800           0
       942 MEMB     9        OSM      H13T     HAL2     0.900000E-01   1.00800           0
       943 MEMB     9        OSM      C14S     CTL2    -0.180000       12.0110           0
       944 MEMB     9        OSM      H14S     HAL2     0.900000E-01   1.00800           0
       945 MEMB     9        OSM      H14T     HAL2     0.900000E-01   1.00800           0
       946 MEMB     9        OSM      C15S     CTL2    -0.180000       12.0110           0
       947 MEMB     9        OSM      H15S     HAL2     0.900000E-01   1.00800           0
       948 MEMB     9        OSM      H15T     HAL2     0.900000E-01   1.00800           0
       949 MEMB     9        OSM      C16S     CTL2    -0.180000       12.0110           0
       950 MEMB     9        OSM      H16S     HAL2     0.900000E-01   1.00800           0
       951 MEMB     9        OSM      H16T     HAL2     0.900000E-01   1.00800           0
       952 MEMB     9        OSM      C17S     CTL2    -0.180000       12.0110           0
       953 MEMB     9        OSM      H17S     HAL2     0.900000E-01   1.00800           0
       954 MEMB     9        OSM      H17T     HAL2     0.900000E-01   1.00800           0
       955 MEMB     9        OSM      C18S     CTL3    -0.270000       12.0110           0
       956 MEMB     9        OSM      H18S     HAL3     0.900000E-01   1.00800           0
       957 MEMB     9        OSM      H18T     HAL3     0.900000E-01   1.00800           0
       958 MEMB     9        OSM      H18U     HAL3     0.900000E-01   1.00800           0
       959 MEMB     9        OSM      C1F      C        0.550000       12.0110           0
       960 MEMB     9        OSM      OF       O       -0.600000       15.9994           0
       961 MEMB     9        OSM      C2F      CTL2    -0.700000E-01   12.0110           0
       962 MEMB     9        OSM      H2F      HAL2     0.600000E-01   1.00800           0
       963 MEMB     9        OSM      H2G      HAL2     0.600000E-01   1.00800           0
       964 MEMB     9        OSM      C3F      CTL2    -0.180000       12.0110           0
       965 MEMB     9        OSM      H3F      HAL2     0.900000E-01   1.00800           0
       966 MEMB     9        OSM      H3G      HAL2     0.900000E-01   1.00800           0
       967 MEMB     9        OSM      C4F      CTL2    -0.180000       12.0110           0
       968 MEMB     9        OSM      H4F      HAL2     0.900000E-01   1.00800           0
       969 MEMB     9        OSM      H4G      HAL2     0.900000E-01   1.00800           0
       970 MEMB     9        OSM      C5F      CTL2    -0.180000       12.0110           0
       971 MEMB     9        OSM      H5F      HAL2     0.900000E-01   1.00800           0
       972 MEMB     9        OSM      H5G      HAL2     0.900000E-01   1.00800           0
       973 MEMB     9        OSM      C6F      CTL2    -0.180000       12.0110           0
       974 MEMB     9        OSM      H6F      HAL2     0.900000E-01   1.00800           0
       975 MEMB     9        OSM      H6G      HAL2     0.900000E-01   1.00800           0
       976 MEMB     9        OSM      C7F      CTL2    -0.180000       12.0110           0
       977 MEMB     9        OSM      H7F      HAL2     0.900000E-01   1.00800           0
       978 MEMB     9        OSM      H7G      HAL2     0.900000E-01   1.00800           0
       979 MEMB     9        OSM      C8F      CTL2    -0.180000       12.0110           0
       980 MEMB     9        OSM      H8F      HAL2     0.900000E-01   1.00800           0
       981 MEMB     9        OSM      H8G      HAL2     0.900000E-01   1.00800           0
       982 MEMB     9        OSM      C9F      CEL1    -0.150000       12.0110           0
       983 MEMB     9        OSM      H9F      HEL1     0.150000       1.00800           0
       984 MEMB     9        OSM      C10F     CEL1    -0.150000       12.0110           0
       985 MEMB     9        OSM      H10F     HEL1     0.150000       1.00800           0
       986 MEMB     9        OSM      C11F     CTL2    -0.180000       12.0110           0
       987 MEMB     9        OSM      H11F     HAL2     0.900000E-01   1.00800           0
       988 MEMB     9        OSM      H11G     HAL2     0.900000E-01   1.00800           0
       989 MEMB     9        OSM      C12F     CTL2    -0.180000       12.0110           0
       990 MEMB     9        OSM      H12F     HAL2     0.900000E-01   1.00800           0
       991 MEMB     9        OSM      H12G     HAL2     0.900000E-01   1.00800           0
       992 MEMB     9        OSM      C13F     CTL2    -0.180000       12.0110           0
       993 MEMB     9        OSM      H13F     HAL2     0.900000E-01   1.00800           0
       994 MEMB     9        OSM      H13G     HAL2     0.900000E-01   1.00800           0
       995 MEMB     9        OSM      C14F     CTL2    -0.180000       12.0110           0
       996 MEMB     9        OSM      H14F     HAL2     0.900000E-01   1.00800           0
       997 MEMB     9        OSM      H14G     HAL2     0.900000E-01   1.00800           0
       998 MEMB     9        OSM      C15F     CTL2    -0.180000       12.0110           0
       999 MEMB     9        OSM      H15F     HAL2     0.900000E-01   1.00800           0
      1000 MEMB     9        OSM      H15G     HAL2     0.900000E-01   1.00800           0
      1001 MEMB     9        OSM      C16F     CTL2    -0.180000       12.0110           0
      1002 MEMB     9        OSM      H16F     HAL2     0.900000E-01   1.00800           0
      1003 MEMB     9        OSM      H16G     HAL2     0.900000E-01   1.00800           0
      1004 MEMB     9        OSM      C17F     CTL2    -0.180000       12.0110           0
      1005 MEMB     9        OSM      H17F     HAL2     0.900000E-01   1.00800           0
      1006 MEMB     9        OSM      H17G     HAL2     0.900000E-01   1.00800           0
      1007 MEMB     9        OSM      C18F     CTL3    -0.270000       12.0110           0
      1008 MEMB     9        OSM      H18F     HAL3     0.900000E-01   1.00800           0
      1009 MEMB     9        OSM      H18G     HAL3     0.900000E-01   1.00800           0
      1010 MEMB     9        OSM      H18H     HAL3     0.900000E-01   1.00800           0
      1011 MEMB     10       CHL1     C3       CRL1     0.140000       12.0110           0
      1012 MEMB     10       CHL1     H3       HGA1     0.900000E-01   1.00800           0
      1013 MEMB     10       CHL1     O3       OHL     -0.660000       15.9994           0
      1014 MEMB     10       CHL1     H3'      HOL      0.430000       1.00800           0
      1015 MEMB     10       CHL1     C4       CRL2    -0.180000       12.0110           0
      1016 MEMB     10       CHL1     H4A      HGA2     0.900000E-01   1.00800           0
      1017 MEMB     10       CHL1     H4B      HGA2     0.900000E-01   1.00800           0
      1018 MEMB     10       CHL1     C5       CEL1      0.00000       12.0110           0
      1019 MEMB     10       CHL1     C6       CEL1    -0.150000       12.0110           0
      1020 MEMB     10       CHL1     H6       HEL1     0.150000       1.00800           0
      1021 MEMB     10       CHL1     C7       CRL2    -0.180000       12.0110           0
      1022 MEMB     10       CHL1     H7A      HGA2     0.900000E-01   1.00800           0
      1023 MEMB     10       CHL1     H7B      HGA2     0.900000E-01   1.00800           0
      1024 MEMB     10       CHL1     C8       CRL1    -0.900000E-01   12.0110           0
      1025 MEMB     10       CHL1     H8       HGA1     0.900000E-01   1.00800           0
      1026 MEMB     10       CHL1     C14      CRL1    -0.900000E-01   12.0110           0
      1027 MEMB     10       CHL1     H14      HGA1     0.900000E-01   1.00800           0
      1028 MEMB     10       CHL1     C15      CRL2    -0.180000       12.0110           0
      1029 MEMB     10       CHL1     H15A     HGA2     0.900000E-01   1.00800           0
      1030 MEMB     10       CHL1     H15B     HGA2     0.900000E-01   1.00800           0
      1031 MEMB     10       CHL1     C16      CRL2    -0.180000       12.0110           0
      1032 MEMB     10       CHL1     H16A     HGA2     0.900000E-01   1.00800           0
      1033 MEMB     10       CHL1     H16B     HGA2     0.900000E-01   1.00800           0
      1034 MEMB     10       CHL1     C17      CRL1    -0.900000E-01   12.0110           0
      1035 MEMB     10       CHL1     H17      HGA1     0.900000E-01   1.00800           0
      1036 MEMB     10       CHL1     C13      CRL1      0.00000       12.0110           0
      1037 MEMB     10       CHL1     C18      CTL3    -0.270000       12.0110           0
      1038 MEMB     10       CHL1     H18A     HAL3     0.900000E-01   1.00800           0
      1039 MEMB     10       CHL1     H18B     HAL3     0.900000E-01   1.00800           0
      1040 MEMB     10       CHL1     H18C     HAL3     0.900000E-01   1.00800           0
      1041 MEMB     10       CHL1     C12      CRL2    -0.180000       12.0110           0
      1042 MEMB     10       CHL1     H12A     HGA2     0.900000E-01   1.00800           0
      1043 MEMB     10       CHL1     H12B     HGA2     0.900000E-01   1.00800           0
      1044 MEMB     10       CHL1     C11      CRL2    -0.180000       12.0110           0
      1045 MEMB     10       CHL1     H11A     HGA2     0.900000E-01   1.00800           0
      1046 MEMB     10       CHL1     H11B     HGA2     0.900000E-01   1.00800           0
      1047 MEMB     10       CHL1     C9       CRL1    -0.900000E-01   12.0110           0
      1048 MEMB     10       CHL1     H9       HGA1     0.900000E-01   1.00800           0
      1049 MEMB     10       CHL1     C10      CRL1      0.00000       12.0110           0
      1050 MEMB     10       CHL1     C19      CTL3    -0.270000       12.0110           0
      1051 MEMB     10       CHL1     H19A     HAL3     0.900000E-01   1.00800           0
      1052 MEMB     10       CHL1     H19B     HAL3     0.900000E-01   1.00800           0
      1053 MEMB     10       CHL1     H19C     HAL3     0.900000E-01   1.00800           0
      1054 MEMB     10       CHL1     C1       CRL2    -0.180000       12.0110           0
      1055 MEMB     10       CHL1     H1A      HGA2     0.900000E-01   1.00800           0
      1056 MEMB     10       CHL1     H1B      HGA2     0.900000E-01   1.00800           0
      1057 MEMB     10       CHL1     C2       CRL2    -0.180000       12.0110           0
      1058 MEMB     10       CHL1     H2A      HGA2     0.900000E-01   1.00800           0
      1059 MEMB     10       CHL1     H2B      HGA2     0.900000E-01   1.00800           0
      1060 MEMB     10       CHL1     C20      CTL1    -0.900000E-01   12.0110           0
      1061 MEMB     10       CHL1     H20      HAL1     0.900000E-01   1.00800           0
      1062 MEMB     10       CHL1     C21      CTL3    -0.270000       12.0110           0
      1063 MEMB     10       CHL1     H21A     HAL3     0.900000E-01   1.00800           0
      1064 MEMB     10       CHL1     H21B     HAL3     0.900000E-01   1.00800           0
      1065 MEMB     10       CHL1     H21C     HAL3     0.900000E-01   1.00800           0
      1066 MEMB     10       CHL1     C22      CTL2    -0.180000       12.0110           0
      1067 MEMB     10       CHL1     H22A     HAL2     0.900000E-01   1.00800           0
      1068 MEMB     10       CHL1     H22B     HAL2     0.900000E-01   1.00800           0
      1069 MEMB     10       CHL1     C23      CTL2    -0.180000       12.0110           0
      1070 MEMB     10       CHL1     H23A     HAL2     0.900000E-01   1.00800           0
      1071 MEMB     10       CHL1     H23B     HAL2     0.900000E-01   1.00800           0
      1072 MEMB     10       CHL1     C24      CTL2    -0.180000       12.0110           0
      1073 MEMB     10       CHL1     H24A     HAL2     0.900000E-01   1.00800           0
      1074 MEMB     10       CHL1     H24B     HAL2     0.900000E-01   1.00800           0
      1075 MEMB     10       CHL1     C25      CTL1    -0.900000E-01   12.0110           0
      1076 MEMB     10       CHL1     H25      HAL1     0.900000E-01   1.00800           0
      1077 MEMB     10       CHL1     C26      CTL3    -0.270000       12.0110           0
      1078 MEMB     10       CHL1     H26A     HAL3     0.900000E-01   1.00800           0
      1079 MEMB     10       CHL1     H26B     HAL3     0.900000E-01   1.00800           0
      1080 MEMB     10       CHL1     H26C     HAL3     0.900000E-01   1.00800           0
      1081 MEMB     10       CHL1     C27      CTL3    -0.270000       12.0110           0
      1082 MEMB     10       CHL1     H27A     HAL3     0.900000E-01   1.00800           0
      1083 MEMB     10       CHL1     H27B     HAL3     0.900000E-01   1.00800           0
      1084 MEMB     10       CHL1     H27C     HAL3     0.900000E-01   1.00800           0
      1085 MEMB     11       CHL1     C3       CRL1     0.140000       12.0110           0
      1086 MEMB     11       CHL1     H3       HGA1     0.900000E-01   1.00800           0
      1087 MEMB     11       CHL1     O3       OHL     -0.660000       15.9994           0
      1088 MEMB     11       CHL1     H3'      HOL      0.430000       1.00800           0
      1089 MEMB     11       CHL1     C4       CRL2    -0.180000       12.0110           0
      1090 MEMB     11       CHL1     H4A      HGA2     0.900000E-01   1.00800           0
      1091 MEMB     11       CHL1     H4B      HGA2     0.900000E-01   1.00800           0
      1092 MEMB     11       CHL1     C5       CEL1      0.00000       12.0110           0
      1093 MEMB     11       CHL1     C6       CEL1    -0.150000       12.0110           0
      1094 MEMB     11       CHL1     H6       HEL1     0.150000       1.00800           0
      1095 MEMB     11       CHL1     C7       CRL2    -0.180000       12.0110           0
      1096 MEMB     11       CHL1     H7A      HGA2     0.900000E-01   1.00800           0
      1097 MEMB     11       CHL1     H7B      HGA2     0.900000E-01   1.00800           0
      1098 MEMB     11       CHL1     C8       CRL1    -0.900000E-01   12.0110           0
      1099 MEMB     11       CHL1     H8       HGA1     0.900000E-01   1.00800           0
      1100 MEMB     11       CHL1     C14      CRL1    -0.900000E-01   12.0110           0
      1101 MEMB     11       CHL1     H14      HGA1     0.900000E-01   1.00800           0
      1102 MEMB     11       CHL1     C15      CRL2    -0.180000       12.0110           0
      1103 MEMB     11       CHL1     H15A     HGA2     0.900000E-01   1.00800           0
      1104 MEMB     11       CHL1     H15B     HGA2     0.900000E-01   1.00800           0
      1105 MEMB     11       CHL1     C16      CRL2    -0.180000       12.0110           0
      1106 MEMB     11       CHL1     H16A     HGA2     0.900000E-01   1.00800           0
      1107 MEMB     11       CHL1     H16B     HGA2     0.900000E-01   1.00800           0
      1108 MEMB     11       CHL1     C17      CRL1    -0.900000E-01   12.0110           0
      1109 MEMB     11       CHL1     H17      HGA1     0.900000E-01   1.00800           0
      1110 MEMB     11       CHL1     C13      CRL1      0.00000       12.0110           0
      1111 MEMB     11       CHL1     C18      CTL3    -0.270000       12.0110           0
      1112 MEMB     11       CHL1     H18A     HAL3     0.900000E-01   1.00800           0
      1113 MEMB     11       CHL1     H18B     HAL3     0.900000E-01   1.00800           0
      1114 MEMB     11       CHL1     H18C     HAL3     0.900000E-01   1.00800           0
      1115 MEMB     11       CHL1     C12      CRL2    -0.180000       12.0110           0
      1116 MEMB     11       CHL1     H12A     HGA2     0.900000E-01   1.00800           0
      1117 MEMB     11       CHL1     H12B     HGA2     0.900000E-01   1.00800           0
      1118 MEMB     11       CHL1     C11      CRL2    -0.180000       12.0110           0
      1119 MEMB     11       CHL1     H11A     HGA2     0.900000E-01   1.00800           0
      1120 MEMB     11       CHL1     H11B     HGA2     0.900000E-01   1.00800           0
      1121 MEMB     11       CHL1     C9       CRL1    -0.900000E-01   12.0110           0
      1122 MEMB     11       CHL1     H9       HGA1     0.900000E-01   1.00800           0
      1123 MEMB     11       CHL1     C10      CRL1      0.00000       12.0110           0
      1124 MEMB     11       CHL1     C19      CTL3    -0.270000       12.0110           0
      1125 MEMB     11       CHL1     H19A     HAL3     0.900000E-01   1.00800           0
      1126 MEMB     11       CHL1     H19B     HAL3     0.900000E-01   1.00800           0
      1127 MEMB     11       CHL1     H19C     HAL3     0.900000E-01   1.00800           0
      1128 MEMB     11       CHL1     C1       CRL2    -0.180000       12.0110           0
      1129 MEMB     11       CHL1     H1A      HGA2     0.900000E-01   1.00800           0
      1130 MEMB     11       CHL1     H1B      HGA2     0.900000E-01   1.00800           0
      1131 MEMB     11       CHL1     C2       CRL2    -0.180000       12.0110           0
      1132 MEMB     11       CHL1     H2A      HGA2     0.900000E-01   1.00800           0
      1133 MEMB     11       CHL1     H2B      HGA2     0.900000E-01   1.00800           0
      1134 MEMB     11       CHL1     C20      CTL1    -0.900000E-01   12.0110           0
      1135 MEMB     11       CHL1     H20      HAL1     0.900000E-01   1.00800           0
      1136 MEMB     11       CHL1     C21      CTL3    -0.270000       12.0110           0
      1137 MEMB     11       CHL1     H21A     HAL3     0.900000E-01   1.00800           0
      1138 MEMB     11       CHL1     H21B     HAL3     0.900000E-01   1.00800           0
      1139 MEMB     11       CHL1     H21C     HAL3     0.900000E-01   1.00800           0
      1140 MEMB     11       CHL1     C22      CTL2    -0.180000       12.0110           0
      1141 MEMB     11       CHL1     H22A     HAL2     0.900000E-01   1.00800           0
      1142 MEMB     11       CHL1     H22B     HAL2     0.900000E-01   1.00800           0
      1143 MEMB     11       CHL1     C23      CTL2    -0.180000       12.0110           0
      1144 MEMB     11       CHL1     H23A     HAL2     0.900000E-01   1.00800           0
      1145 MEMB     11       CHL1     H23B     HAL2     0.900000E-01   1.00800           0
      1146 MEMB     11       CHL1     C24      CTL2    -0.180000       12.0110           0
      1147 MEMB     11       CHL1     H24A     HAL2     0.900000E-01   1.00800           0
      1148 MEMB     11       CHL1     H24B     HAL2     0.900000E-01   1.00800           0
      1149 MEMB     11       CHL1     C25      CTL1    -0.900000E-01   12.0110           0
      1150 MEMB     11       CHL1     H25      HAL1     0.900000E-01   1.00800           0
      1151 MEMB     11       CHL1     C26      CTL3    -0.270000       12.0110           0
      1152 MEMB     11       CHL1     H26A     HAL3     0.900000E-01   1.00800           0
      1153 MEMB     11       CHL1     H26B     HAL3     0.900000E-01   1.00800           0
      1154 MEMB     11       CHL1     H26C     HAL3     0.900000E-01   1.00800           0
      1155 MEMB     11       CHL1     C27      CTL3    -0.270000       12.0110           0
      1156 MEMB     11       CHL1     H27A     HAL3     0.900000E-01   1.00800           0
      1157 MEMB     11       CHL1     H27B     HAL3     0.900000E-01   1.00800           0
      1158 MEMB     11       CHL1     H27C     HAL3     0.900000E-01   1.00800           0
      1159 MEMB     12       SAPE     N        NH3L    -0.300000       14.0070           0
      1160 MEMB     12       SAPE     HN1      HCL      0.330000       1.00800           0
      1161 MEMB     12       SAPE     HN2      HCL      0.330000       1.00800           0
      1162 MEMB     12       SAPE     HN3      HCL      0.330000       1.00800           0
      1163 MEMB     12       SAPE     C12      CTL2     0.130000       12.0110           0
      1164 MEMB     12       SAPE     H12A     HAL2     0.900000E-01   1.00800           0
      1165 MEMB     12       SAPE     H12B     HAL2     0.900000E-01   1.00800           0
      1166 MEMB     12       SAPE     C11      CTL2    -0.800000E-01   12.0110           0
      1167 MEMB     12       SAPE     H11A     HAL2     0.900000E-01   1.00800           0
      1168 MEMB     12       SAPE     H11B     HAL2     0.900000E-01   1.00800           0
      1169 MEMB     12       SAPE     P        PL        1.50000       30.9740           0
      1170 MEMB     12       SAPE     O13      O2L     -0.780000       15.9994           0
      1171 MEMB     12       SAPE     O14      O2L     -0.780000       15.9994           0
      1172 MEMB     12       SAPE     O12      OSLP    -0.570000       15.9994           0
      1173 MEMB     12       SAPE     O11      OSLP    -0.570000       15.9994           0
      1174 MEMB     12       SAPE     C1       CTL2    -0.800000E-01   12.0110           0
      1175 MEMB     12       SAPE     HA       HAL2     0.900000E-01   1.00800           0
      1176 MEMB     12       SAPE     HB       HAL2     0.900000E-01   1.00800           0
      1177 MEMB     12       SAPE     C2       CTL1     0.170000       12.0110           0
      1178 MEMB     12       SAPE     HS       HAL1     0.900000E-01   1.00800           0
      1179 MEMB     12       SAPE     O21      OSL     -0.490000       15.9994           0
      1180 MEMB     12       SAPE     C21      CL       0.900000       12.0110           0
      1181 MEMB     12       SAPE     O22      OBL     -0.630000       15.9994           0
      1182 MEMB     12       SAPE     C22      CTL2    -0.220000       12.0110           0
      1183 MEMB     12       SAPE     H2R      HAL2     0.900000E-01   1.00800           0
      1184 MEMB     12       SAPE     H2S      HAL2     0.900000E-01   1.00800           0
      1185 MEMB     12       SAPE     C3       CTL2     0.800000E-01   12.0110           0
      1186 MEMB     12       SAPE     HX       HAL2     0.900000E-01   1.00800           0
      1187 MEMB     12       SAPE     HY       HAL2     0.900000E-01   1.00800           0
      1188 MEMB     12       SAPE     O31      OSL     -0.490000       15.9994           0
      1189 MEMB     12       SAPE     C31      CL       0.900000       12.0110           0
      1190 MEMB     12       SAPE     O32      OBL     -0.630000       15.9994           0
      1191 MEMB     12       SAPE     C32      CTL2    -0.220000       12.0110           0
      1192 MEMB     12       SAPE     H2X      HAL2     0.900000E-01   1.00800           0
      1193 MEMB     12       SAPE     H2Y      HAL2     0.900000E-01   1.00800           0
      1194 MEMB     12       SAPE     C23      CTL2    -0.180000       12.0110           0
      1195 MEMB     12       SAPE     H3R      HAL2     0.900000E-01   1.00800           0
      1196 MEMB     12       SAPE     H3S      HAL2     0.900000E-01   1.00800           0
      1197 MEMB     12       SAPE     C24      CTL2    -0.180000       12.0110           0
      1198 MEMB     12       SAPE     H4R      HAL2     0.900000E-01   1.00800           0
      1199 MEMB     12       SAPE     H4S      HAL2     0.900000E-01   1.00800           0
      1200 MEMB     12       SAPE     C25      CEL1    -0.150000       12.0110           0
      1201 MEMB     12       SAPE     H5R      HEL1     0.150000       1.00800           0
      1202 MEMB     12       SAPE     C26      CEL1    -0.150000       12.0110           0
      1203 MEMB     12       SAPE     H6R      HEL1     0.150000       1.00800           0
      1204 MEMB     12       SAPE     C27      CTL2    -0.180000       12.0110           0
      1205 MEMB     12       SAPE     H7R      HAL2     0.900000E-01   1.00800           0
      1206 MEMB     12       SAPE     H7S      HAL2     0.900000E-01   1.00800           0
      1207 MEMB     12       SAPE     C28      CEL1    -0.150000       12.0110           0
      1208 MEMB     12       SAPE     H8R      HEL1     0.150000       1.00800           0
      1209 MEMB     12       SAPE     C29      CEL1    -0.150000       12.0110           0
      1210 MEMB     12       SAPE     H9R      HEL1     0.150000       1.00800           0
      1211 MEMB     12       SAPE     C210     CTL2    -0.180000       12.0110           0
      1212 MEMB     12       SAPE     H10R     HAL2     0.900000E-01   1.00800           0
      1213 MEMB     12       SAPE     H10S     HAL2     0.900000E-01   1.00800           0
      1214 MEMB     12       SAPE     C211     CEL1    -0.150000       12.0110           0
      1215 MEMB     12       SAPE     H11R     HEL1     0.150000       1.00800           0
      1216 MEMB     12       SAPE     C212     CEL1    -0.150000       12.0110           0
      1217 MEMB     12       SAPE     H12R     HEL1     0.150000       1.00800           0
      1218 MEMB     12       SAPE     C213     CTL2    -0.180000       12.0110           0
      1219 MEMB     12       SAPE     H13R     HAL2     0.900000E-01   1.00800           0
      1220 MEMB     12       SAPE     H13S     HAL2     0.900000E-01   1.00800           0
      1221 MEMB     12       SAPE     C214     CEL1    -0.150000       12.0110           0
      1222 MEMB     12       SAPE     H14R     HEL1     0.150000       1.00800           0
      1223 MEMB     12       SAPE     C215     CEL1    -0.150000       12.0110           0
      1224 MEMB     12       SAPE     H15R     HEL1     0.150000       1.00800           0
      1225 MEMB     12       SAPE     C216     CTL2    -0.180000       12.0110           0
      1226 MEMB     12       SAPE     H16R     HAL2     0.900000E-01   1.00800           0
      1227 MEMB     12       SAPE     H16S     HAL2     0.900000E-01   1.00800           0
      1228 MEMB     12       SAPE     C217     CTL2    -0.180000       12.0110           0
      1229 MEMB     12       SAPE     H17R     HAL2     0.900000E-01   1.00800           0
      1230 MEMB     12       SAPE     H17S     HAL2     0.900000E-01   1.00800           0
      1231 MEMB     12       SAPE     C218     CTL2    -0.180000       12.0110           0
      1232 MEMB     12       SAPE     H18R     HAL2     0.900000E-01   1.00800           0
      1233 MEMB     12       SAPE     H18S     HAL2     0.900000E-01   1.00800           0
      1234 MEMB     12       SAPE     C219     CTL2    -0.180000       12.0110           0
      1235 MEMB     12       SAPE     H19R     HAL2     0.900000E-01   1.00800           0
      1236 MEMB     12       SAPE     H19S     HAL2     0.900000E-01   1.00800           0
      1237 MEMB     12       SAPE     C220     CTL3    -0.270000       12.0110           0
      1238 MEMB     12       SAPE     H20R     HAL3     0.900000E-01   1.00800           0
      1239 MEMB     12       SAPE     H20S     HAL3     0.900000E-01   1.00800           0
      1240 MEMB     12       SAPE     H20T     HAL3     0.900000E-01   1.00800           0
      1241 MEMB     12       SAPE     C33      CTL2    -0.180000       12.0110           0
      1242 MEMB     12       SAPE     H3X      HAL2     0.900000E-01   1.00800           0
      1243 MEMB     12       SAPE     H3Y      HAL2     0.900000E-01   1.00800           0
      1244 MEMB     12       SAPE     C34      CTL2    -0.180000       12.0110           0
      1245 MEMB     12       SAPE     H4X      HAL2     0.900000E-01   1.00800           0
      1246 MEMB     12       SAPE     H4Y      HAL2     0.900000E-01   1.00800           0
      1247 MEMB     12       SAPE     C35      CTL2    -0.180000       12.0110           0
      1248 MEMB     12       SAPE     H5X      HAL2     0.900000E-01   1.00800           0
      1249 MEMB     12       SAPE     H5Y      HAL2     0.900000E-01   1.00800           0
      1250 MEMB     12       SAPE     C36      CTL2    -0.180000       12.0110           0
      1251 MEMB     12       SAPE     H6X      HAL2     0.900000E-01   1.00800           0
      1252 MEMB     12       SAPE     H6Y      HAL2     0.900000E-01   1.00800           0
      1253 MEMB     12       SAPE     C37      CTL2    -0.180000       12.0110           0
      1254 MEMB     12       SAPE     H7X      HAL2     0.900000E-01   1.00800           0
      1255 MEMB     12       SAPE     H7Y      HAL2     0.900000E-01   1.00800           0
      1256 MEMB     12       SAPE     C38      CTL2    -0.180000       12.0110           0
      1257 MEMB     12       SAPE     H8X      HAL2     0.900000E-01   1.00800           0
      1258 MEMB     12       SAPE     H8Y      HAL2     0.900000E-01   1.00800           0
      1259 MEMB     12       SAPE     C39      CTL2    -0.180000       12.0110           0
      1260 MEMB     12       SAPE     H9X      HAL2     0.900000E-01   1.00800           0
      1261 MEMB     12       SAPE     H9Y      HAL2     0.900000E-01   1.00800           0
      1262 MEMB     12       SAPE     C310     CTL2    -0.180000       12.0110           0
      1263 MEMB     12       SAPE     H10X     HAL2     0.900000E-01   1.00800           0
      1264 MEMB     12       SAPE     H10Y     HAL2     0.900000E-01   1.00800           0
      1265 MEMB     12       SAPE     C311     CTL2    -0.180000       12.0110           0
      1266 MEMB     12       SAPE     H11X     HAL2     0.900000E-01   1.00800           0
      1267 MEMB     12       SAPE     H11Y     HAL2     0.900000E-01   1.00800           0
      1268 MEMB     12       SAPE     C312     CTL2    -0.180000       12.0110           0
      1269 MEMB     12       SAPE     H12X     HAL2     0.900000E-01   1.00800           0
      1270 MEMB     12       SAPE     H12Y     HAL2     0.900000E-01   1.00800           0
      1271 MEMB     12       SAPE     C313     CTL2    -0.180000       12.0110           0
      1272 MEMB     12       SAPE     H13X     HAL2     0.900000E-01   1.00800           0
      1273 MEMB     12       SAPE     H13Y     HAL2     0.900000E-01   1.00800           0
      1274 MEMB     12       SAPE     C314     CTL2    -0.180000       12.0110           0
      1275 MEMB     12       SAPE     H14X     HAL2     0.900000E-01   1.00800           0
      1276 MEMB     12       SAPE     H14Y     HAL2     0.900000E-01   1.00800           0
      1277 MEMB     12       SAPE     C315     CTL2    -0.180000       12.0110           0
      1278 MEMB     12       SAPE     H15X     HAL2     0.900000E-01   1.00800           0
      1279 MEMB     12       SAPE     H15Y     HAL2     0.900000E-01   1.00800           0
      1280 MEMB     12       SAPE     C316     CTL2    -0.180000       12.0110           0
      1281 MEMB     12       SAPE     H16X     HAL2     0.900000E-01   1.00800           0
      1282 MEMB     12       SAPE     H16Y     HAL2     0.900000E-01   1.00800           0
      1283 MEMB     12       SAPE     C317     CTL2    -0.180000       12.0110           0
      1284 MEMB     12       SAPE     H17X     HAL2     0.900000E-01   1.00800           0
      1285 MEMB     12       SAPE     H17Y     HAL2     0.900000E-01   1.00800           0
      1286 MEMB     12       SAPE     C318     CTL3    -0.270000       12.0110           0
      1287 MEMB     12       SAPE     H18X     HAL3     0.900000E-01   1.00800           0
      1288 MEMB     12       SAPE     H18Y     HAL3     0.900000E-01   1.00800           0
      1289 MEMB     12       SAPE     H18Z     HAL3     0.900000E-01   1.00800           0
      1290 MEMB     13       CHL1     C3       CRL1     0.140000       12.0110           0
      1291 MEMB     13       CHL1     H3       HGA1     0.900000E-01   1.00800           0
      1292 MEMB     13       CHL1     O3       OHL     -0.660000       15.9994           0
      1293 MEMB     13       CHL1     H3'      HOL      0.430000       1.00800           0
      1294 MEMB     13       CHL1     C4       CRL2    -0.180000       12.0110           0
      1295 MEMB     13       CHL1     H4A      HGA2     0.900000E-01   1.00800           0
      1296 MEMB     13       CHL1     H4B      HGA2     0.900000E-01   1.00800           0
      1297 MEMB     13       CHL1     C5       CEL1      0.00000       12.0110           0
      1298 MEMB     13       CHL1     C6       CEL1    -0.150000       12.0110           0
      1299 MEMB     13       CHL1     H6       HEL1     0.150000       1.00800           0
      1300 MEMB     13       CHL1     C7       CRL2    -0.180000       12.0110           0
      1301 MEMB     13       CHL1     H7A      HGA2     0.900000E-01   1.00800           0
      1302 MEMB     13       CHL1     H7B      HGA2     0.900000E-01   1.00800           0
      1303 MEMB     13       CHL1     C8       CRL1    -0.900000E-01   12.0110           0
      1304 MEMB     13       CHL1     H8       HGA1     0.900000E-01   1.00800           0
      1305 MEMB     13       CHL1     C14      CRL1    -0.900000E-01   12.0110           0
      1306 MEMB     13       CHL1     H14      HGA1     0.900000E-01   1.00800           0
      1307 MEMB     13       CHL1     C15      CRL2    -0.180000       12.0110           0
      1308 MEMB     13       CHL1     H15A     HGA2     0.900000E-01   1.00800           0
      1309 MEMB     13       CHL1     H15B     HGA2     0.900000E-01   1.00800           0
      1310 MEMB     13       CHL1     C16      CRL2    -0.180000       12.0110           0
      1311 MEMB     13       CHL1     H16A     HGA2     0.900000E-01   1.00800           0
      1312 MEMB     13       CHL1     H16B     HGA2     0.900000E-01   1.00800           0
      1313 MEMB     13       CHL1     C17      CRL1    -0.900000E-01   12.0110           0
      1314 MEMB     13       CHL1     H17      HGA1     0.900000E-01   1.00800           0
      1315 MEMB     13       CHL1     C13      CRL1      0.00000       12.0110           0
      1316 MEMB     13       CHL1     C18      CTL3    -0.270000       12.0110           0
      1317 MEMB     13       CHL1     H18A     HAL3     0.900000E-01   1.00800           0
      1318 MEMB     13       CHL1     H18B     HAL3     0.900000E-01   1.00800           0
      1319 MEMB     13       CHL1     H18C     HAL3     0.900000E-01   1.00800           0
      1320 MEMB     13       CHL1     C12      CRL2    -0.180000       12.0110           0
      1321 MEMB     13       CHL1     H12A     HGA2     0.900000E-01   1.00800           0
      1322 MEMB     13       CHL1     H12B     HGA2     0.900000E-01   1.00800           0
      1323 MEMB     13       CHL1     C11      CRL2    -0.180000       12.0110           0
      1324 MEMB     13       CHL1     H11A     HGA2     0.900000E-01   1.00800           0
      1325 MEMB     13       CHL1     H11B     HGA2     0.900000E-01   1.00800           0
      1326 MEMB     13       CHL1     C9       CRL1    -0.900000E-01   12.0110           0
      1327 MEMB     13       CHL1     H9       HGA1     0.900000E-01   1.00800           0
      1328 MEMB     13       CHL1     C10      CRL1      0.00000       12.0110           0
      1329 MEMB     13       CHL1     C19      CTL3    -0.270000       12.0110           0
      1330 MEMB     13       CHL1     H19A     HAL3     0.900000E-01   1.00800           0
      1331 MEMB     13       CHL1     H19B     HAL3     0.900000E-01   1.00800           0
      1332 MEMB     13       CHL1     H19C     HAL3     0.900000E-01   1.00800           0
      1333 MEMB     13       CHL1     C1       CRL2    -0.180000       12.0110           0
      1334 MEMB     13       CHL1     H1A      HGA2     0.900000E-01   1.00800           0
      1335 MEMB     13       CHL1     H1B      HGA2     0.900000E-01   1.00800           0
      1336 MEMB     13       CHL1     C2       CRL2    -0.180000       12.0110           0
      1337 MEMB     13       CHL1     H2A      HGA2     0.900000E-01   1.00800           0
      1338 MEMB     13       CHL1     H2B      HGA2     0.900000E-01   1.00800           0
      1339 MEMB     13       CHL1     C20      CTL1    -0.900000E-01   12.0110           0
      1340 MEMB     13       CHL1     H20      HAL1     0.900000E-01   1.00800           0
      1341 MEMB     13       CHL1     C21      CTL3    -0.270000       12.0110           0
      1342 MEMB     13       CHL1     H21A     HAL3     0.900000E-01   1.00800           0
      1343 MEMB     13       CHL1     H21B     HAL3     0.900000E-01   1.00800           0
      1344 MEMB     13       CHL1     H21C     HAL3     0.900000E-01   1.00800           0
      1345 MEMB     13       CHL1     C22      CTL2    -0.180000       12.0110           0
      1346 MEMB     13       CHL1     H22A     HAL2     0.900000E-01   1.00800           0
      1347 MEMB     13       CHL1     H22B     HAL2     0.900000E-01   1.00800           0
      1348 MEMB     13       CHL1     C23      CTL2    -0.180000       12.0110           0
      1349 MEMB     13       CHL1     H23A     HAL2     0.900000E-01   1.00800           0
      1350 MEMB     13       CHL1     H23B     HAL2     0.900000E-01   1.00800           0
      1351 MEMB     13       CHL1     C24      CTL2    -0.180000       12.0110           0
      1352 MEMB     13       CHL1     H24A     HAL2     0.900000E-01   1.00800           0
      1353 MEMB     13       CHL1     H24B     HAL2     0.900000E-01   1.00800           0
      1354 MEMB     13       CHL1     C25      CTL1    -0.900000E-01   12.0110           0
      1355 MEMB     13       CHL1     H25      HAL1     0.900000E-01   1.00800           0
      1356 MEMB     13       CHL1     C26      CTL3    -0.270000       12.0110           0
      1357 MEMB     13       CHL1     H26A     HAL3     0.900000E-01   1.00800           0
      1358 MEMB     13       CHL1     H26B     HAL3     0.900000E-01   1.00800           0
      1359 MEMB     13       CHL1     H26C     HAL3     0.900000E-01   1.00800           0
      1360 MEMB     13       CHL1     C27      CTL3    -0.270000       12.0110           0
      1361 MEMB     13       CHL1     H27A     HAL3     0.900000E-01   1.00800           0
      1362 MEMB     13       CHL1     H27B     HAL3     0.900000E-01   1.00800           0
      1363 MEMB     13       CHL1     H27C     HAL3     0.900000E-01   1.00800           0
      1364 MEMB     14       SLPC     N        NTL     -0.600000       14.0070           0
      1365 MEMB     14       SLPC     C13      CTL5    -0.350000       12.0110           0
      1366 MEMB     14       SLPC     H13A     HL       0.250000       1.00800           0
      1367 MEMB     14       SLPC     H13B     HL       0.250000       1.00800           0
      1368 MEMB     14       SLPC     H13C     HL       0.250000       1.00800           0
      1369 MEMB     14       SLPC     C14      CTL5    -0.350000       12.0110           0
      1370 MEMB     14       SLPC     H14A     HL       0.250000       1.00800           0
      1371 MEMB     14       SLPC     H14B     HL       0.250000       1.00800           0
      1372 MEMB     14       SLPC     H14C     HL       0.250000       1.00800           0
      1373 MEMB     14       SLPC     C15      CTL5    -0.350000       12.0110           0
      1374 MEMB     14       SLPC     H15A     HL       0.250000       1.00800           0
      1375 MEMB     14       SLPC     H15B     HL       0.250000       1.00800           0
      1376 MEMB     14       SLPC     H15C     HL       0.250000       1.00800           0
      1377 MEMB     14       SLPC     C12      CTL2    -0.100000       12.0110           0
      1378 MEMB     14       SLPC     H12A     HL       0.250000       1.00800           0
      1379 MEMB     14       SLPC     H12B     HL       0.250000       1.00800           0
      1380 MEMB     14       SLPC     C11      CTL2    -0.800000E-01   12.0110           0
      1381 MEMB     14       SLPC     H11A     HAL2     0.900000E-01   1.00800           0
      1382 MEMB     14       SLPC     H11B     HAL2     0.900000E-01   1.00800           0
      1383 MEMB     14       SLPC     P        PL        1.50000       30.9740           0
      1384 MEMB     14       SLPC     O13      O2L     -0.780000       15.9994           0
      1385 MEMB     14       SLPC     O14      O2L     -0.780000       15.9994           0
      1386 MEMB     14       SLPC     O12      OSLP    -0.570000       15.9994           0
      1387 MEMB     14       SLPC     O11      OSLP    -0.570000       15.9994           0
      1388 MEMB     14       SLPC     C1       CTL2    -0.800000E-01   12.0110           0
      1389 MEMB     14       SLPC     HA       HAL2     0.900000E-01   1.00800           0
      1390 MEMB     14       SLPC     HB       HAL2     0.900000E-01   1.00800           0
      1391 MEMB     14       SLPC     C2       CTL1     0.170000       12.0110           0
      1392 MEMB     14       SLPC     HS       HAL1     0.900000E-01   1.00800           0
      1393 MEMB     14       SLPC     O21      OSL     -0.490000       15.9994           0
      1394 MEMB     14       SLPC     C21      CL       0.900000       12.0110           0
      1395 MEMB     14       SLPC     O22      OBL     -0.630000       15.9994           0
      1396 MEMB     14       SLPC     C22      CTL2    -0.220000       12.0110           0
      1397 MEMB     14       SLPC     H2R      HAL2     0.900000E-01   1.00800           0
      1398 MEMB     14       SLPC     H2S      HAL2     0.900000E-01   1.00800           0
      1399 MEMB     14       SLPC     C3       CTL2     0.800000E-01   12.0110           0
      1400 MEMB     14       SLPC     HX       HAL2     0.900000E-01   1.00800           0
      1401 MEMB     14       SLPC     HY       HAL2     0.900000E-01   1.00800           0
      1402 MEMB     14       SLPC     O31      OSL     -0.490000       15.9994           0
      1403 MEMB     14       SLPC     C31      CL       0.900000       12.0110           0
      1404 MEMB     14       SLPC     O32      OBL     -0.630000       15.9994           0
      1405 MEMB     14       SLPC     C32      CTL2    -0.220000       12.0110           0
      1406 MEMB     14       SLPC     H2X      HAL2     0.900000E-01   1.00800           0
      1407 MEMB     14       SLPC     H2Y      HAL2     0.900000E-01   1.00800           0
      1408 MEMB     14       SLPC     C23      CTL2    -0.180000       12.0110           0
      1409 MEMB     14       SLPC     H3R      HAL2     0.900000E-01   1.00800           0
      1410 MEMB     14       SLPC     H3S      HAL2     0.900000E-01   1.00800           0
      1411 MEMB     14       SLPC     C24      CTL2    -0.180000       12.0110           0
      1412 MEMB     14       SLPC     H4R      HAL2     0.900000E-01   1.00800           0
      1413 MEMB     14       SLPC     H4S      HAL2     0.900000E-01   1.00800           0
      1414 MEMB     14       SLPC     C25      CTL2    -0.180000       12.0110           0
      1415 MEMB     14       SLPC     H5R      HAL2     0.900000E-01   1.00800           0
      1416 MEMB     14       SLPC     H5S      HAL2     0.900000E-01   1.00800           0
      1417 MEMB     14       SLPC     C26      CTL2    -0.180000       12.0110           0
      1418 MEMB     14       SLPC     H6R      HAL2     0.900000E-01   1.00800           0
      1419 MEMB     14       SLPC     H6S      HAL2     0.900000E-01   1.00800           0
      1420 MEMB     14       SLPC     C27      CTL2    -0.180000       12.0110           0
      1421 MEMB     14       SLPC     H7R      HAL2     0.900000E-01   1.00800           0
      1422 MEMB     14       SLPC     H7S      HAL2     0.900000E-01   1.00800           0
      1423 MEMB     14       SLPC     C28      CTL2    -0.180000       12.0110           0
      1424 MEMB     14       SLPC     H8R      HAL2     0.900000E-01   1.00800           0
      1425 MEMB     14       SLPC     H8S      HAL2     0.900000E-01   1.00800           0
      1426 MEMB     14       SLPC     C29      CEL1    -0.150000       12.0110           0
      1427 MEMB     14       SLPC     H9R      HEL1     0.150000       1.00800           0
      1428 MEMB     14       SLPC     C210     CEL1    -0.150000       12.0110           0
      1429 MEMB     14       SLPC     H10R     HEL1     0.150000       1.00800           0
      1430 MEMB     14       SLPC     C211     CTL2    -0.180000       12.0110           0
      1431 MEMB     14       SLPC     H11R     HAL2     0.900000E-01   1.00800           0
      1432 MEMB     14       SLPC     H11S     HAL2     0.900000E-01   1.00800           0
      1433 MEMB     14       SLPC     C212     CEL1    -0.150000       12.0110           0
      1434 MEMB     14       SLPC     H12R     HEL1     0.150000       1.00800           0
      1435 MEMB     14       SLPC     C213     CEL1    -0.150000       12.0110           0
      1436 MEMB     14       SLPC     H13R     HEL1     0.150000       1.00800           0
      1437 MEMB     14       SLPC     C214     CTL2    -0.180000       12.0110           0
      1438 MEMB     14       SLPC     H14R     HAL2     0.900000E-01   1.00800           0
      1439 MEMB     14       SLPC     H14S     HAL2     0.900000E-01   1.00800           0
      1440 MEMB     14       SLPC     C215     CTL2    -0.180000       12.0110           0
      1441 MEMB     14       SLPC     H15R     HAL2     0.900000E-01   1.00800           0
      1442 MEMB     14       SLPC     H15S     HAL2     0.900000E-01   1.00800           0
      1443 MEMB     14       SLPC     C216     CTL2    -0.180000       12.0110           0
      1444 MEMB     14       SLPC     H16R     HAL2     0.900000E-01   1.00800           0
      1445 MEMB     14       SLPC     H16S     HAL2     0.900000E-01   1.00800           0
      1446 MEMB     14       SLPC     C217     CTL2    -0.180000       12.0110           0
      1447 MEMB     14       SLPC     H17R     HAL2     0.900000E-01   1.00800           0
      1448 MEMB     14       SLPC     H17S     HAL2     0.900000E-01   1.00800           0
      1449 MEMB     14       SLPC     C218     CTL3    -0.270000       12.0110           0
      1450 MEMB     14       SLPC     H18R     HAL3     0.900000E-01   1.00800           0
      1451 MEMB     14       SLPC     H18S     HAL3     0.900000E-01   1.00800           0
      1452 MEMB     14       SLPC     H18T     HAL3     0.900000E-01   1.00800           0
      1453 MEMB     14       SLPC     C33      CTL2    -0.180000       12.0110           0
      1454 MEMB     14       SLPC     H3X      HAL2     0.900000E-01   1.00800           0
      1455 MEMB     14       SLPC     H3Y      HAL2     0.900000E-01   1.00800           0
      1456 MEMB     14       SLPC     C34      CTL2    -0.180000       12.0110           0
      1457 MEMB     14       SLPC     H4X      HAL2     0.900000E-01   1.00800           0
      1458 MEMB     14       SLPC     H4Y      HAL2     0.900000E-01   1.00800           0
      1459 MEMB     14       SLPC     C35      CTL2    -0.180000       12.0110           0
      1460 MEMB     14       SLPC     H5X      HAL2     0.900000E-01   1.00800           0
      1461 MEMB     14       SLPC     H5Y      HAL2     0.900000E-01   1.00800           0
      1462 MEMB     14       SLPC     C36      CTL2    -0.180000       12.0110           0
      1463 MEMB     14       SLPC     H6X      HAL2     0.900000E-01   1.00800           0
      1464 MEMB     14       SLPC     H6Y      HAL2     0.900000E-01   1.00800           0
      1465 MEMB     14       SLPC     C37      CTL2    -0.180000       12.0110           0
      1466 MEMB     14       SLPC     H7X      HAL2     0.900000E-01   1.00800           0
      1467 MEMB     14       SLPC     H7Y      HAL2     0.900000E-01   1.00800           0
      1468 MEMB     14       SLPC     C38      CTL2    -0.180000       12.0110           0
      1469 MEMB     14       SLPC     H8X      HAL2     0.900000E-01   1.00800           0
      1470 MEMB     14       SLPC     H8Y      HAL2     0.900000E-01   1.00800           0
      1471 MEMB     14       SLPC     C39      CTL2    -0.180000       12.0110           0
      1472 MEMB     14       SLPC     H9X      HAL2     0.900000E-01   1.00800           0
      1473 MEMB     14       SLPC     H9Y      HAL2     0.900000E-01   1.00800           0
      1474 MEMB     14       SLPC     C310     CTL2    -0.180000       12.0110           0
      1475 MEMB     14       SLPC     H10X     HAL2     0.900000E-01   1.00800           0
      1476 MEMB     14       SLPC     H10Y     HAL2     0.900000E-01   1.00800           0
      1477 MEMB     14       SLPC     C311     CTL2    -0.180000       12.0110           0
      1478 MEMB     14       SLPC     H11X     HAL2     0.900000E-01   1.00800           0
      1479 MEMB     14       SLPC     H11Y     HAL2     0.900000E-01   1.00800           0
      1480 MEMB     14       SLPC     C312     CTL2    -0.180000       12.0110           0
      1481 MEMB     14       SLPC     H12X     HAL2     0.900000E-01   1.00800           0
      1482 MEMB     14       SLPC     H12Y     HAL2     0.900000E-01   1.00800           0
      1483 MEMB     14       SLPC     C313     CTL2    -0.180000       12.0110           0
      1484 MEMB     14       SLPC     H13X     HAL2     0.900000E-01   1.00800           0
      1485 MEMB     14       SLPC     H13Y     HAL2     0.900000E-01   1.00800           0
      1486 MEMB     14       SLPC     C314     CTL2    -0.180000       12.0110           0
      1487 MEMB     14       SLPC     H14X     HAL2     0.900000E-01   1.00800           0
      1488 MEMB     14       SLPC     H14Y     HAL2     0.900000E-01   1.00800           0
      1489 MEMB     14       SLPC     C315     CTL2    -0.180000       12.0110           0
      1490 MEMB     14       SLPC     H15X     HAL2     0.900000E-01   1.00800           0
      1491 MEMB     14       SLPC     H15Y     HAL2     0.900000E-01   1.00800           0
      1492 MEMB     14       SLPC     C316     CTL2    -0.180000       12.0110           0
      1493 MEMB     14       SLPC     H16X     HAL2     0.900000E-01   1.00800           0
      1494 MEMB     14       SLPC     H16Y     HAL2     0.900000E-01   1.00800           0
      1495 MEMB     14       SLPC     C317     CTL2    -0.180000       12.0110           0
      1496 MEMB     14       SLPC     H17X     HAL2     0.900000E-01   1.00800           0
      1497 MEMB     14       SLPC     H17Y     HAL2     0.900000E-01   1.00800           0
      1498 MEMB     14       SLPC     C318     CTL3    -0.270000       12.0110           0
      1499 MEMB     14       SLPC     H18X     HAL3     0.900000E-01   1.00800           0
      1500 MEMB     14       SLPC     H18Y     HAL3     0.900000E-01   1.00800           0
      1501 MEMB     14       SLPC     H18Z     HAL3     0.900000E-01   1.00800           0
      1502 MEMB     15       SAPC     N        NTL     -0.600000       14.0070           0
      1503 MEMB     15       SAPC     C12      CTL2    -0.100000       12.0110           0
      1504 MEMB     15       SAPC     H12A     HL       0.250000       1.00800           0
      1505 MEMB     15       SAPC     H12B     HL       0.250000       1.00800           0
      1506 MEMB     15       SAPC     C13      CTL5    -0.350000       12.0110           0
      1507 MEMB     15       SAPC     H13A     HL       0.250000       1.00800           0
      1508 MEMB     15       SAPC     H13B     HL       0.250000       1.00800           0
      1509 MEMB     15       SAPC     H13C     HL       0.250000       1.00800           0
      1510 MEMB     15       SAPC     C14      CTL5    -0.350000       12.0110           0
      1511 MEMB     15       SAPC     H14A     HL       0.250000       1.00800           0
      1512 MEMB     15       SAPC     H14B     HL       0.250000       1.00800           0
      1513 MEMB     15       SAPC     H14C     HL       0.250000       1.00800           0
      1514 MEMB     15       SAPC     C15      CTL5    -0.350000       12.0110           0
      1515 MEMB     15       SAPC     H15A     HL       0.250000       1.00800           0
      1516 MEMB     15       SAPC     H15B     HL       0.250000       1.00800           0
      1517 MEMB     15       SAPC     H15C     HL       0.250000       1.00800           0
      1518 MEMB     15       SAPC     C11      CTL2    -0.800000E-01   12.0110           0
      1519 MEMB     15       SAPC     H11A     HAL2     0.900000E-01   1.00800           0
      1520 MEMB     15       SAPC     H11B     HAL2     0.900000E-01   1.00800           0
      1521 MEMB     15       SAPC     P        PL        1.50000       30.9740           0
      1522 MEMB     15       SAPC     O13      O2L     -0.780000       15.9994           0
      1523 MEMB     15       SAPC     O14      O2L     -0.780000       15.9994           0
      1524 MEMB     15       SAPC     O12      OSLP    -0.570000       15.9994           0
      1525 MEMB     15       SAPC     O11      OSLP    -0.570000       15.9994           0
      1526 MEMB     15       SAPC     C1       CTL2    -0.800000E-01   12.0110           0
      1527 MEMB     15       SAPC     HA       HAL2     0.900000E-01   1.00800           0
      1528 MEMB     15       SAPC     HB       HAL2     0.900000E-01   1.00800           0
      1529 MEMB     15       SAPC     C2       CTL1     0.170000       12.0110           0
      1530 MEMB     15       SAPC     HS       HAL1     0.900000E-01   1.00800           0
      1531 MEMB     15       SAPC     O21      OSL     -0.490000       15.9994           0
      1532 MEMB     15       SAPC     C21      CL       0.900000       12.0110           0
      1533 MEMB     15       SAPC     O22      OBL     -0.630000       15.9994           0
      1534 MEMB     15       SAPC     C22      CTL2    -0.220000       12.0110           0
      1535 MEMB     15       SAPC     H2R      HAL2     0.900000E-01   1.00800           0
      1536 MEMB     15       SAPC     H2S      HAL2     0.900000E-01   1.00800           0
      1537 MEMB     15       SAPC     C3       CTL2     0.800000E-01   12.0110           0
      1538 MEMB     15       SAPC     HX       HAL2     0.900000E-01   1.00800           0
      1539 MEMB     15       SAPC     HY       HAL2     0.900000E-01   1.00800           0
      1540 MEMB     15       SAPC     O31      OSL     -0.490000       15.9994           0
      1541 MEMB     15       SAPC     C31      CL       0.900000       12.0110           0
      1542 MEMB     15       SAPC     O32      OBL     -0.630000       15.9994           0
      1543 MEMB     15       SAPC     C32      CTL2    -0.220000       12.0110           0
      1544 MEMB     15       SAPC     H2X      HAL2     0.900000E-01   1.00800           0
      1545 MEMB     15       SAPC     H2Y      HAL2     0.900000E-01   1.00800           0
      1546 MEMB     15       SAPC     C23      CTL2    -0.180000       12.0110           0
      1547 MEMB     15       SAPC     H3R      HAL2     0.900000E-01   1.00800           0
      1548 MEMB     15       SAPC     H3S      HAL2     0.900000E-01   1.00800           0
      1549 MEMB     15       SAPC     C24      CTL2    -0.180000       12.0110           0
      1550 MEMB     15       SAPC     H4R      HAL2     0.900000E-01   1.00800           0
      1551 MEMB     15       SAPC     H4S      HAL2     0.900000E-01   1.00800           0
      1552 MEMB     15       SAPC     C25      CEL1    -0.150000       12.0110           0
      1553 MEMB     15       SAPC     H5R      HEL1     0.150000       1.00800           0
      1554 MEMB     15       SAPC     C26      CEL1    -0.150000       12.0110           0
      1555 MEMB     15       SAPC     H6R      HEL1     0.150000       1.00800           0
      1556 MEMB     15       SAPC     C27      CTL2    -0.180000       12.0110           0
      1557 MEMB     15       SAPC     H7R      HAL2     0.900000E-01   1.00800           0
      1558 MEMB     15       SAPC     H7S      HAL2     0.900000E-01   1.00800           0
      1559 MEMB     15       SAPC     C28      CEL1    -0.150000       12.0110           0
      1560 MEMB     15       SAPC     H8R      HEL1     0.150000       1.00800           0
      1561 MEMB     15       SAPC     C29      CEL1    -0.150000       12.0110           0
      1562 MEMB     15       SAPC     H9R      HEL1     0.150000       1.00800           0
      1563 MEMB     15       SAPC     C210     CTL2    -0.180000       12.0110           0
      1564 MEMB     15       SAPC     H10R     HAL2     0.900000E-01   1.00800           0
      1565 MEMB     15       SAPC     H10S     HAL2     0.900000E-01   1.00800           0
      1566 MEMB     15       SAPC     C211     CEL1    -0.150000       12.0110           0
      1567 MEMB     15       SAPC     H11R     HEL1     0.150000       1.00800           0
      1568 MEMB     15       SAPC     C212     CEL1    -0.150000       12.0110           0
      1569 MEMB     15       SAPC     H12R     HEL1     0.150000       1.00800           0
      1570 MEMB     15       SAPC     C213     CTL2    -0.180000       12.0110           0
      1571 MEMB     15       SAPC     H13R     HAL2     0.900000E-01   1.00800           0
      1572 MEMB     15       SAPC     H13S     HAL2     0.900000E-01   1.00800           0
      1573 MEMB     15       SAPC     C214     CEL1    -0.150000       12.0110           0
      1574 MEMB     15       SAPC     H14R     HEL1     0.150000       1.00800           0
      1575 MEMB     15       SAPC     C215     CEL1    -0.150000       12.0110           0
      1576 MEMB     15       SAPC     H15R     HEL1     0.150000       1.00800           0
      1577 MEMB     15       SAPC     C216     CTL2    -0.180000       12.0110           0
      1578 MEMB     15       SAPC     H16R     HAL2     0.900000E-01   1.00800           0
      1579 MEMB     15       SAPC     H16S     HAL2     0.900000E-01   1.00800           0
      1580 MEMB     15       SAPC     C217     CTL2    -0.180000       12.0110           0
      1581 MEMB     15       SAPC     H17R     HAL2     0.900000E-01   1.00800           0
      1582 MEMB     15       SAPC     H17S     HAL2     0.900000E-01   1.00800           0
      1583 MEMB     15       SAPC     C218     CTL2    -0.270000       12.0110           0
      1584 MEMB     15       SAPC     H18R     HAL2     0.900000E-01   1.00800           0
      1585 MEMB     15       SAPC     H18S     HAL2     0.900000E-01   1.00800           0
      1586 MEMB     15       SAPC     C219     CTL2    -0.180000       12.0110           0
      1587 MEMB     15       SAPC     H19R     HAL2     0.900000E-01   1.00800           0
      1588 MEMB     15       SAPC     H19S     HAL2     0.900000E-01   1.00800           0
      1589 MEMB     15       SAPC     C220     CTL3    -0.180000       12.0110           0
      1590 MEMB     15       SAPC     H20R     HAL3     0.900000E-01   1.00800           0
      1591 MEMB     15       SAPC     H20S     HAL3     0.900000E-01   1.00800           0
      1592 MEMB     15       SAPC     H20T     HAL3     0.900000E-01   1.00800           0
      1593 MEMB     15       SAPC     C33      CTL2    -0.180000       12.0110           0
      1594 MEMB     15       SAPC     H3X      HAL2     0.900000E-01   1.00800           0
      1595 MEMB     15       SAPC     H3Y      HAL2     0.900000E-01   1.00800           0
      1596 MEMB     15       SAPC     C34      CTL2    -0.180000       12.0110           0
      1597 MEMB     15       SAPC     H4X      HAL2     0.900000E-01   1.00800           0
      1598 MEMB     15       SAPC     H4Y      HAL2     0.900000E-01   1.00800           0
      1599 MEMB     15       SAPC     C35      CTL2    -0.180000       12.0110           0
      1600 MEMB     15       SAPC     H5X      HAL2     0.900000E-01   1.00800           0
      1601 MEMB     15       SAPC     H5Y      HAL2     0.900000E-01   1.00800           0
      1602 MEMB     15       SAPC     C36      CTL2    -0.180000       12.0110           0
      1603 MEMB     15       SAPC     H6X      HAL2     0.900000E-01   1.00800           0
      1604 MEMB     15       SAPC     H6Y      HAL2     0.900000E-01   1.00800           0
      1605 MEMB     15       SAPC     C37      CTL2    -0.180000       12.0110           0
      1606 MEMB     15       SAPC     H7X      HAL2     0.900000E-01   1.00800           0
      1607 MEMB     15       SAPC     H7Y      HAL2     0.900000E-01   1.00800           0
      1608 MEMB     15       SAPC     C38      CTL2    -0.180000       12.0110           0
      1609 MEMB     15       SAPC     H8X      HAL2     0.900000E-01   1.00800           0
      1610 MEMB     15       SAPC     H8Y      HAL2     0.900000E-01   1.00800           0
      1611 MEMB     15       SAPC     C39      CTL2    -0.180000       12.0110           0
      1612 MEMB     15       SAPC     H9X      HAL2     0.900000E-01   1.00800           0
      1613 MEMB     15       SAPC     H9Y      HAL2     0.900000E-01   1.00800           0
      1614 MEMB     15       SAPC     C310     CTL2    -0.180000       12.0110           0
      1615 MEMB     15       SAPC     H10X     HAL2     0.900000E-01   1.00800           0
      1616 MEMB     15       SAPC     H10Y     HAL2     0.900000E-01   1.00800           0
      1617 MEMB     15       SAPC     C311     CTL2    -0.180000       12.0110           0
      1618 MEMB     15       SAPC     H11X     HAL2     0.900000E-01   1.00800           0
      1619 MEMB     15       SAPC     H11Y     HAL2     0.900000E-01   1.00800           0
      1620 MEMB     15       SAPC     C312     CTL2    -0.180000       12.0110           0
      1621 MEMB     15       SAPC     H12X     HAL2     0.900000E-01   1.00800           0
      1622 MEMB     15       SAPC     H12Y     HAL2     0.900000E-01   1.00800           0
      1623 MEMB     15       SAPC     C313     CTL2    -0.180000       12.0110           0
      1624 MEMB     15       SAPC     H13X     HAL2     0.900000E-01   1.00800           0
      1625 MEMB     15       SAPC     H13Y     HAL2     0.900000E-01   1.00800           0
      1626 MEMB     15       SAPC     C314     CTL2    -0.180000       12.0110           0
      1627 MEMB     15       SAPC     H14X     HAL2     0.900000E-01   1.00800           0
      1628 MEMB     15       SAPC     H14Y     HAL2     0.900000E-01   1.00800           0
      1629 MEMB     15       SAPC     C315     CTL2    -0.180000       12.0110           0
      1630 MEMB     15       SAPC     H15X     HAL2     0.900000E-01   1.00800           0
      1631 MEMB     15       SAPC     H15Y     HAL2     0.900000E-01   1.00800           0
      1632 MEMB     15       SAPC     C316     CTL2    -0.180000       12.0110           0
      1633 MEMB     15       SAPC     H16X     HAL2     0.900000E-01   1.00800           0
      1634 MEMB     15       SAPC     H16Y     HAL2     0.900000E-01   1.00800           0
      1635 MEMB     15       SAPC     C317     CTL2    -0.180000       12.0110           0
      1636 MEMB     15       SAPC     H17X     HAL2     0.900000E-01   1.00800           0
      1637 MEMB     15       SAPC     H17Y     HAL2     0.900000E-01   1.00800           0
      1638 MEMB     15       SAPC     C318     CTL3    -0.270000       12.0110           0
      1639 MEMB     15       SAPC     H18X     HAL3     0.900000E-01   1.00800           0
      1640 MEMB     15       SAPC     H18Y     HAL3     0.900000E-01   1.00800           0
      1641 MEMB     15       SAPC     H18Z     HAL3     0.900000E-01   1.00800           0
      1642 MEMB     16       SAPC     N        NTL     -0.600000       14.0070           0
      1643 MEMB     16       SAPC     C12      CTL2    -0.100000       12.0110           0
      1644 MEMB     16       SAPC     H12A     HL       0.250000       1.00800           0
      1645 MEMB     16       SAPC     H12B     HL       0.250000       1.00800           0
      1646 MEMB     16       SAPC     C13      CTL5    -0.350000       12.0110           0
      1647 MEMB     16       SAPC     H13A     HL       0.250000       1.00800           0
      1648 MEMB     16       SAPC     H13B     HL       0.250000       1.00800           0
      1649 MEMB     16       SAPC     H13C     HL       0.250000       1.00800           0
      1650 MEMB     16       SAPC     C14      CTL5    -0.350000       12.0110           0
      1651 MEMB     16       SAPC     H14A     HL       0.250000       1.00800           0
      1652 MEMB     16       SAPC     H14B     HL       0.250000       1.00800           0
      1653 MEMB     16       SAPC     H14C     HL       0.250000       1.00800           0
      1654 MEMB     16       SAPC     C15      CTL5    -0.350000       12.0110           0
      1655 MEMB     16       SAPC     H15A     HL       0.250000       1.00800           0
      1656 MEMB     16       SAPC     H15B     HL       0.250000       1.00800           0
      1657 MEMB     16       SAPC     H15C     HL       0.250000       1.00800           0
      1658 MEMB     16       SAPC     C11      CTL2    -0.800000E-01   12.0110           0
      1659 MEMB     16       SAPC     H11A     HAL2     0.900000E-01   1.00800           0
      1660 MEMB     16       SAPC     H11B     HAL2     0.900000E-01   1.00800           0
      1661 MEMB     16       SAPC     P        PL        1.50000       30.9740           0
      1662 MEMB     16       SAPC     O13      O2L     -0.780000       15.9994           0
      1663 MEMB     16       SAPC     O14      O2L     -0.780000       15.9994           0
      1664 MEMB     16       SAPC     O12      OSLP    -0.570000       15.9994           0
      1665 MEMB     16       SAPC     O11      OSLP    -0.570000       15.9994           0
      1666 MEMB     16       SAPC     C1       CTL2    -0.800000E-01   12.0110           0
      1667 MEMB     16       SAPC     HA       HAL2     0.900000E-01   1.00800           0
      1668 MEMB     16       SAPC     HB       HAL2     0.900000E-01   1.00800           0
      1669 MEMB     16       SAPC     C2       CTL1     0.170000       12.0110           0
      1670 MEMB     16       SAPC     HS       HAL1     0.900000E-01   1.00800           0
      1671 MEMB     16       SAPC     O21      OSL     -0.490000       15.9994           0
      1672 MEMB     16       SAPC     C21      CL       0.900000       12.0110           0
      1673 MEMB     16       SAPC     O22      OBL     -0.630000       15.9994           0
      1674 MEMB     16       SAPC     C22      CTL2    -0.220000       12.0110           0
      1675 MEMB     16       SAPC     H2R      HAL2     0.900000E-01   1.00800           0
      1676 MEMB     16       SAPC     H2S      HAL2     0.900000E-01   1.00800           0
      1677 MEMB     16       SAPC     C3       CTL2     0.800000E-01   12.0110           0
      1678 MEMB     16       SAPC     HX       HAL2     0.900000E-01   1.00800           0
      1679 MEMB     16       SAPC     HY       HAL2     0.900000E-01   1.00800           0
      1680 MEMB     16       SAPC     O31      OSL     -0.490000       15.9994           0
      1681 MEMB     16       SAPC     C31      CL       0.900000       12.0110           0
      1682 MEMB     16       SAPC     O32      OBL     -0.630000       15.9994           0
      1683 MEMB     16       SAPC     C32      CTL2    -0.220000       12.0110           0
      1684 MEMB     16       SAPC     H2X      HAL2     0.900000E-01   1.00800           0
      1685 MEMB     16       SAPC     H2Y      HAL2     0.900000E-01   1.00800           0
      1686 MEMB     16       SAPC     C23      CTL2    -0.180000       12.0110           0
      1687 MEMB     16       SAPC     H3R      HAL2     0.900000E-01   1.00800           0
      1688 MEMB     16       SAPC     H3S      HAL2     0.900000E-01   1.00800           0
      1689 MEMB     16       SAPC     C24      CTL2    -0.180000       12.0110           0
      1690 MEMB     16       SAPC     H4R      HAL2     0.900000E-01   1.00800           0
      1691 MEMB     16       SAPC     H4S      HAL2     0.900000E-01   1.00800           0
      1692 MEMB     16       SAPC     C25      CEL1    -0.150000       12.0110           0
      1693 MEMB     16       SAPC     H5R      HEL1     0.150000       1.00800           0
      1694 MEMB     16       SAPC     C26      CEL1    -0.150000       12.0110           0
      1695 MEMB     16       SAPC     H6R      HEL1     0.150000       1.00800           0
      1696 MEMB     16       SAPC     C27      CTL2    -0.180000       12.0110           0
      1697 MEMB     16       SAPC     H7R      HAL2     0.900000E-01   1.00800           0
      1698 MEMB     16       SAPC     H7S      HAL2     0.900000E-01   1.00800           0
      1699 MEMB     16       SAPC     C28      CEL1    -0.150000       12.0110           0
      1700 MEMB     16       SAPC     H8R      HEL1     0.150000       1.00800           0
      1701 MEMB     16       SAPC     C29      CEL1    -0.150000       12.0110           0
      1702 MEMB     16       SAPC     H9R      HEL1     0.150000       1.00800           0
      1703 MEMB     16       SAPC     C210     CTL2    -0.180000       12.0110           0
      1704 MEMB     16       SAPC     H10R     HAL2     0.900000E-01   1.00800           0
      1705 MEMB     16       SAPC     H10S     HAL2     0.900000E-01   1.00800           0
      1706 MEMB     16       SAPC     C211     CEL1    -0.150000       12.0110           0
      1707 MEMB     16       SAPC     H11R     HEL1     0.150000       1.00800           0
      1708 MEMB     16       SAPC     C212     CEL1    -0.150000       12.0110           0
      1709 MEMB     16       SAPC     H12R     HEL1     0.150000       1.00800           0
      1710 MEMB     16       SAPC     C213     CTL2    -0.180000       12.0110           0
      1711 MEMB     16       SAPC     H13R     HAL2     0.900000E-01   1.00800           0
      1712 MEMB     16       SAPC     H13S     HAL2     0.900000E-01   1.00800           0
      1713 MEMB     16       SAPC     C214     CEL1    -0.150000       12.0110           0
      1714 MEMB     16       SAPC     H14R     HEL1     0.150000       1.00800           0
      1715 MEMB     16       SAPC     C215     CEL1    -0.150000       12.0110           0
      1716 MEMB     16       SAPC     H15R     HEL1     0.150000       1.00800           0
      1717 MEMB     16       SAPC     C216     CTL2    -0.180000       12.0110           0
      1718 MEMB     16       SAPC     H16R     HAL2     0.900000E-01   1.00800           0
      1719 MEMB     16       SAPC     H16S     HAL2     0.900000E-01   1.00800           0
      1720 MEMB     16       SAPC     C217     CTL2    -0.180000       12.0110           0
      1721 MEMB     16       SAPC     H17R     HAL2     0.900000E-01   1.00800           0
      1722 MEMB     16       SAPC     H17S     HAL2     0.900000E-01   1.00800           0
      1723 MEMB     16       SAPC     C218     CTL2    -0.270000       12.0110           0
      1724 MEMB     16       SAPC     H18R     HAL2     0.900000E-01   1.00800           0
      1725 MEMB     16       SAPC     H18S     HAL2     0.900000E-01   1.00800           0
      1726 MEMB     16       SAPC     C219     CTL2    -0.180000       12.0110           0
      1727 MEMB     16       SAPC     H19R     HAL2     0.900000E-01   1.00800           0
      1728 MEMB     16       SAPC     H19S     HAL2     0.900000E-01   1.00800           0
      1729 MEMB     16       SAPC     C220     CTL3    -0.180000       12.0110           0
      1730 MEMB     16       SAPC     H20R     HAL3     0.900000E-01   1.00800           0
      1731 MEMB     16       SAPC     H20S     HAL3     0.900000E-01   1.00800           0
      1732 MEMB     16       SAPC     H20T     HAL3     0.900000E-01   1.00800           0
      1733 MEMB     16       SAPC     C33      CTL2    -0.180000       12.0110           0
      1734 MEMB     16       SAPC     H3X      HAL2     0.900000E-01   1.00800           0
      1735 MEMB     16       SAPC     H3Y      HAL2     0.900000E-01   1.00800           0
      1736 MEMB     16       SAPC     C34      CTL2    -0.180000       12.0110           0
      1737 MEMB     16       SAPC     H4X      HAL2     0.900000E-01   1.00800           0
      1738 MEMB     16       SAPC     H4Y      HAL2     0.900000E-01   1.00800           0
      1739 MEMB     16       SAPC     C35      CTL2    -0.180000       12.0110           0
      1740 MEMB     16       SAPC     H5X      HAL2     0.900000E-01   1.00800           0
      1741 MEMB     16       SAPC     H5Y      HAL2     0.900000E-01   1.00800           0
      1742 MEMB     16       SAPC     C36      CTL2    -0.180000       12.0110           0
      1743 MEMB     16       SAPC     H6X      HAL2     0.900000E-01   1.00800           0
      1744 MEMB     16       SAPC     H6Y      HAL2     0.900000E-01   1.00800           0
      1745 MEMB     16       SAPC     C37      CTL2    -0.180000       12.0110           0
      1746 MEMB     16       SAPC     H7X      HAL2     0.900000E-01   1.00800           0
      1747 MEMB     16       SAPC     H7Y      HAL2     0.900000E-01   1.00800           0
      1748 MEMB     16       SAPC     C38      CTL2    -0.180000       12.0110           0
      1749 MEMB     16       SAPC     H8X      HAL2     0.900000E-01   1.00800           0
      1750 MEMB     16       SAPC     H8Y      HAL2     0.900000E-01   1.00800           0
      1751 MEMB     16       SAPC     C39      CTL2    -0.180000       12.0110           0
      1752 MEMB     16       SAPC     H9X      HAL2     0.900000E-01   1.00800           0
      1753 MEMB     16       SAPC     H9Y      HAL2     0.900000E-01   1.00800           0
      1754 MEMB     16       SAPC     C310     CTL2    -0.180000       12.0110           0
      1755 MEMB     16       SAPC     H10X     HAL2     0.900000E-01   1.00800           0
      1756 MEMB     16       SAPC     H10Y     HAL2     0.900000E-01   1.00800           0
      1757 MEMB     16       SAPC     C311     CTL2    -0.180000       12.0110           0
      1758 MEMB     16       SAPC     H11X     HAL2     0.900000E-01   1.00800           0
      1759 MEMB     16       SAPC     H11Y     HAL2     0.900000E-01   1.00800           0
      1760 MEMB     16       SAPC     C312     CTL2    -0.180000       12.0110           0
      1761 MEMB     16       SAPC     H12X     HAL2     0.900000E-01   1.00800           0
      1762 MEMB     16       SAPC     H12Y     HAL2     0.900000E-01   1.00800           0
      1763 MEMB     16       SAPC     C313     CTL2    -0.180000       12.0110           0
      1764 MEMB     16       SAPC     H13X     HAL2     0.900000E-01   1.00800           0
      1765 MEMB     16       SAPC     H13Y     HAL2     0.900000E-01   1.00800           0
      1766 MEMB     16       SAPC     C314     CTL2    -0.180000       12.0110           0
      1767 MEMB     16       SAPC     H14X     HAL2     0.900000E-01   1.00800           0
      1768 MEMB     16       SAPC     H14Y     HAL2     0.900000E-01   1.00800           0
      1769 MEMB     16       SAPC     C315     CTL2    -0.180000       12.0110           0
      1770 MEMB     16       SAPC     H15X     HAL2     0.900000E-01   1.00800           0
      1771 MEMB     16       SAPC     H15Y     HAL2     0.900000E-01   1.00800           0
      1772 MEMB     16       SAPC     C316     CTL2    -0.180000       12.0110           0
      1773 MEMB     16       SAPC     H16X     HAL2     0.900000E-01   1.00800           0
      1774 MEMB     16       SAPC     H16Y     HAL2     0.900000E-01   1.00800           0
      1775 MEMB     16       SAPC     C317     CTL2    -0.180000       12.0110           0
      1776 MEMB     16       SAPC     H17X     HAL2     0.900000E-01   1.00800           0
      1777 MEMB     16       SAPC     H17Y     HAL2     0.900000E-01   1.00800           0
      1778 MEMB     16       SAPC     C318     CTL3    -0.270000       12.0110           0
      1779 MEMB     16       SAPC     H18X     HAL3     0.900000E-01   1.00800           0
      1780 MEMB     16       SAPC     H18Y     HAL3     0.900000E-01   1.00800           0
      1781 MEMB     16       SAPC     H18Z     HAL3     0.900000E-01   1.00800           0
      1782 MEMB     17       SLPC     N        NTL     -0.600000       14.0070           0
      1783 MEMB     17       SLPC     C13      CTL5    -0.350000       12.0110           0
      1784 MEMB     17       SLPC     H13A     HL       0.250000       1.00800           0
      1785 MEMB     17       SLPC     H13B     HL       0.250000       1.00800           0
      1786 MEMB     17       SLPC     H13C     HL       0.250000       1.00800           0
      1787 MEMB     17       SLPC     C14      CTL5    -0.350000       12.0110           0
      1788 MEMB     17       SLPC     H14A     HL       0.250000       1.00800           0
      1789 MEMB     17       SLPC     H14B     HL       0.250000       1.00800           0
      1790 MEMB     17       SLPC     H14C     HL       0.250000       1.00800           0
      1791 MEMB     17       SLPC     C15      CTL5    -0.350000       12.0110           0
      1792 MEMB     17       SLPC     H15A     HL       0.250000       1.00800           0
      1793 MEMB     17       SLPC     H15B     HL       0.250000       1.00800           0
      1794 MEMB     17       SLPC     H15C     HL       0.250000       1.00800           0
      1795 MEMB     17       SLPC     C12      CTL2    -0.100000       12.0110           0
      1796 MEMB     17       SLPC     H12A     HL       0.250000       1.00800           0
      1797 MEMB     17       SLPC     H12B     HL       0.250000       1.00800           0
      1798 MEMB     17       SLPC     C11      CTL2    -0.800000E-01   12.0110           0
      1799 MEMB     17       SLPC     H11A     HAL2     0.900000E-01   1.00800           0
      1800 MEMB     17       SLPC     H11B     HAL2     0.900000E-01   1.00800           0
      1801 MEMB     17       SLPC     P        PL        1.50000       30.9740           0
      1802 MEMB     17       SLPC     O13      O2L     -0.780000       15.9994           0
      1803 MEMB     17       SLPC     O14      O2L     -0.780000       15.9994           0
      1804 MEMB     17       SLPC     O12      OSLP    -0.570000       15.9994           0
      1805 MEMB     17       SLPC     O11      OSLP    -0.570000       15.9994           0
      1806 MEMB     17       SLPC     C1       CTL2    -0.800000E-01   12.0110           0
      1807 MEMB     17       SLPC     HA       HAL2     0.900000E-01   1.00800           0
      1808 MEMB     17       SLPC     HB       HAL2     0.900000E-01   1.00800           0
      1809 MEMB     17       SLPC     C2       CTL1     0.170000       12.0110           0
      1810 MEMB     17       SLPC     HS       HAL1     0.900000E-01   1.00800           0
      1811 MEMB     17       SLPC     O21      OSL     -0.490000       15.9994           0
      1812 MEMB     17       SLPC     C21      CL       0.900000       12.0110           0
      1813 MEMB     17       SLPC     O22      OBL     -0.630000       15.9994           0
      1814 MEMB     17       SLPC     C22      CTL2    -0.220000       12.0110           0
      1815 MEMB     17       SLPC     H2R      HAL2     0.900000E-01   1.00800           0
      1816 MEMB     17       SLPC     H2S      HAL2     0.900000E-01   1.00800           0
      1817 MEMB     17       SLPC     C3       CTL2     0.800000E-01   12.0110           0
      1818 MEMB     17       SLPC     HX       HAL2     0.900000E-01   1.00800           0
      1819 MEMB     17       SLPC     HY       HAL2     0.900000E-01   1.00800           0
      1820 MEMB     17       SLPC     O31      OSL     -0.490000       15.9994           0
      1821 MEMB     17       SLPC     C31      CL       0.900000       12.0110           0
      1822 MEMB     17       SLPC     O32      OBL     -0.630000       15.9994           0
      1823 MEMB     17       SLPC     C32      CTL2    -0.220000       12.0110           0
      1824 MEMB     17       SLPC     H2X      HAL2     0.900000E-01   1.00800           0
      1825 MEMB     17       SLPC     H2Y      HAL2     0.900000E-01   1.00800           0
      1826 MEMB     17       SLPC     C23      CTL2    -0.180000       12.0110           0
      1827 MEMB     17       SLPC     H3R      HAL2     0.900000E-01   1.00800           0
      1828 MEMB     17       SLPC     H3S      HAL2     0.900000E-01   1.00800           0
      1829 MEMB     17       SLPC     C24      CTL2    -0.180000       12.0110           0
      1830 MEMB     17       SLPC     H4R      HAL2     0.900000E-01   1.00800           0
      1831 MEMB     17       SLPC     H4S      HAL2     0.900000E-01   1.00800           0
      1832 MEMB     17       SLPC     C25      CTL2    -0.180000       12.0110           0
      1833 MEMB     17       SLPC     H5R      HAL2     0.900000E-01   1.00800           0
      1834 MEMB     17       SLPC     H5S      HAL2     0.900000E-01   1.00800           0
      1835 MEMB     17       SLPC     C26      CTL2    -0.180000       12.0110           0
      1836 MEMB     17       SLPC     H6R      HAL2     0.900000E-01   1.00800           0
      1837 MEMB     17       SLPC     H6S      HAL2     0.900000E-01   1.00800           0
      1838 MEMB     17       SLPC     C27      CTL2    -0.180000       12.0110           0
      1839 MEMB     17       SLPC     H7R      HAL2     0.900000E-01   1.00800           0
      1840 MEMB     17       SLPC     H7S      HAL2     0.900000E-01   1.00800           0
      1841 MEMB     17       SLPC     C28      CTL2    -0.180000       12.0110           0
      1842 MEMB     17       SLPC     H8R      HAL2     0.900000E-01   1.00800           0
      1843 MEMB     17       SLPC     H8S      HAL2     0.900000E-01   1.00800           0
      1844 MEMB     17       SLPC     C29      CEL1    -0.150000       12.0110           0
      1845 MEMB     17       SLPC     H9R      HEL1     0.150000       1.00800           0
      1846 MEMB     17       SLPC     C210     CEL1    -0.150000       12.0110           0
      1847 MEMB     17       SLPC     H10R     HEL1     0.150000       1.00800           0
      1848 MEMB     17       SLPC     C211     CTL2    -0.180000       12.0110           0
      1849 MEMB     17       SLPC     H11R     HAL2     0.900000E-01   1.00800           0
      1850 MEMB     17       SLPC     H11S     HAL2     0.900000E-01   1.00800           0
      1851 MEMB     17       SLPC     C212     CEL1    -0.150000       12.0110           0
      1852 MEMB     17       SLPC     H12R     HEL1     0.150000       1.00800           0
      1853 MEMB     17       SLPC     C213     CEL1    -0.150000       12.0110           0
      1854 MEMB     17       SLPC     H13R     HEL1     0.150000       1.00800           0
      1855 MEMB     17       SLPC     C214     CTL2    -0.180000       12.0110           0
      1856 MEMB     17       SLPC     H14R     HAL2     0.900000E-01   1.00800           0
      1857 MEMB     17       SLPC     H14S     HAL2     0.900000E-01   1.00800           0
      1858 MEMB     17       SLPC     C215     CTL2    -0.180000       12.0110           0
      1859 MEMB     17       SLPC     H15R     HAL2     0.900000E-01   1.00800           0
      1860 MEMB     17       SLPC     H15S     HAL2     0.900000E-01   1.00800           0
      1861 MEMB     17       SLPC     C216     CTL2    -0.180000       12.0110           0
      1862 MEMB     17       SLPC     H16R     HAL2     0.900000E-01   1.00800           0
      1863 MEMB     17       SLPC     H16S     HAL2     0.900000E-01   1.00800           0
      1864 MEMB     17       SLPC     C217     CTL2    -0.180000       12.0110           0
      1865 MEMB     17       SLPC     H17R     HAL2     0.900000E-01   1.00800           0
      1866 MEMB     17       SLPC     H17S     HAL2     0.900000E-01   1.00800           0
      1867 MEMB     17       SLPC     C218     CTL3    -0.270000       12.0110           0
      1868 MEMB     17       SLPC     H18R     HAL3     0.900000E-01   1.00800           0
      1869 MEMB     17       SLPC     H18S     HAL3     0.900000E-01   1.00800           0
      1870 MEMB     17       SLPC     H18T     HAL3     0.900000E-01   1.00800           0
      1871 MEMB     17       SLPC     C33      CTL2    -0.180000       12.0110           0
      1872 MEMB     17       SLPC     H3X      HAL2     0.900000E-01   1.00800           0
      1873 MEMB     17       SLPC     H3Y      HAL2     0.900000E-01   1.00800           0
      1874 MEMB     17       SLPC     C34      CTL2    -0.180000       12.0110           0
      1875 MEMB     17       SLPC     H4X      HAL2     0.900000E-01   1.00800           0
      1876 MEMB     17       SLPC     H4Y      HAL2     0.900000E-01   1.00800           0
      1877 MEMB     17       SLPC     C35      CTL2    -0.180000       12.0110           0
      1878 MEMB     17       SLPC     H5X      HAL2     0.900000E-01   1.00800           0
      1879 MEMB     17       SLPC     H5Y      HAL2     0.900000E-01   1.00800           0
      1880 MEMB     17       SLPC     C36      CTL2    -0.180000       12.0110           0
      1881 MEMB     17       SLPC     H6X      HAL2     0.900000E-01   1.00800           0
      1882 MEMB     17       SLPC     H6Y      HAL2     0.900000E-01   1.00800           0
      1883 MEMB     17       SLPC     C37      CTL2    -0.180000       12.0110           0
      1884 MEMB     17       SLPC     H7X      HAL2     0.900000E-01   1.00800           0
      1885 MEMB     17       SLPC     H7Y      HAL2     0.900000E-01   1.00800           0
      1886 MEMB     17       SLPC     C38      CTL2    -0.180000       12.0110           0
      1887 MEMB     17       SLPC     H8X      HAL2     0.900000E-01   1.00800           0
      1888 MEMB     17       SLPC     H8Y      HAL2     0.900000E-01   1.00800           0
      1889 MEMB     17       SLPC     C39      CTL2    -0.180000       12.0110           0
      1890 MEMB     17       SLPC     H9X      HAL2     0.900000E-01   1.00800           0
      1891 MEMB     17       SLPC     H9Y      HAL2     0.900000E-01   1.00800           0
      1892 MEMB     17       SLPC     C310     CTL2    -0.180000       12.0110           0
      1893 MEMB     17       SLPC     H10X     HAL2     0.900000E-01   1.00800           0
      1894 MEMB     17       SLPC     H10Y     HAL2     0.900000E-01   1.00800           0
      1895 MEMB     17       SLPC     C311     CTL2    -0.180000       12.0110           0
      1896 MEMB     17       SLPC     H11X     HAL2     0.900000E-01   1.00800           0
      1897 MEMB     17       SLPC     H11Y     HAL2     0.900000E-01   1.00800           0
      1898 MEMB     17       SLPC     C312     CTL2    -0.180000       12.0110           0
      1899 MEMB     17       SLPC     H12X     HAL2     0.900000E-01   1.00800           0
      1900 MEMB     17       SLPC     H12Y     HAL2     0.900000E-01   1.00800           0
      1901 MEMB     17       SLPC     C313     CTL2    -0.180000       12.0110           0
      1902 MEMB     17       SLPC     H13X     HAL2     0.900000E-01   1.00800           0
      1903 MEMB     17       SLPC     H13Y     HAL2     0.900000E-01   1.00800           0
      1904 MEMB     17       SLPC     C314     CTL2    -0.180000       12.0110           0
      1905 MEMB     17       SLPC     H14X     HAL2     0.900000E-01   1.00800           0
      1906 MEMB     17       SLPC     H14Y     HAL2     0.900000E-01   1.00800           0
      1907 MEMB     17       SLPC     C315     CTL2    -0.180000       12.0110           0
      1908 MEMB     17       SLPC     H15X     HAL2     0.900000E-01   1.00800           0
      1909 MEMB     17       SLPC     H15Y     HAL2     0.900000E-01   1.00800           0
      1910 MEMB     17       SLPC     C316     CTL2    -0.180000       12.0110           0
      1911 MEMB     17       SLPC     H16X     HAL2     0.900000E-01   1.00800           0
      1912 MEMB     17       SLPC     H16Y     HAL2     0.900000E-01   1.00800           0
      1913 MEMB     17       SLPC     C317     CTL2    -0.180000       12.0110           0
      1914 MEMB     17       SLPC     H17X     HAL2     0.900000E-01   1.00800           0
      1915 MEMB     17       SLPC     H17Y     HAL2     0.900000E-01   1.00800           0
      1916 MEMB     17       SLPC     C318     CTL3    -0.270000       12.0110           0
      1917 MEMB     17       SLPC     H18X     HAL3     0.900000E-01   1.00800           0
      1918 MEMB     17       SLPC     H18Y     HAL3     0.900000E-01   1.00800           0
      1919 MEMB     17       SLPC     H18Z     HAL3     0.900000E-01   1.00800           0
      1920 MEMB     18       SAPE     N        NH3L    -0.300000       14.0070           0
      1921 MEMB     18       SAPE     HN1      HCL      0.330000       1.00800           0
      1922 MEMB     18       SAPE     HN2      HCL      0.330000       1.00800           0
      1923 MEMB     18       SAPE     HN3      HCL      0.330000       1.00800           0
      1924 MEMB     18       SAPE     C12      CTL2     0.130000       12.0110           0
      1925 MEMB     18       SAPE     H12A     HAL2     0.900000E-01   1.00800           0
      1926 MEMB     18       SAPE     H12B     HAL2     0.900000E-01   1.00800           0
      1927 MEMB     18       SAPE     C11      CTL2    -0.800000E-01   12.0110           0
      1928 MEMB     18       SAPE     H11A     HAL2     0.900000E-01   1.00800           0
      1929 MEMB     18       SAPE     H11B     HAL2     0.900000E-01   1.00800           0
      1930 MEMB     18       SAPE     P        PL        1.50000       30.9740           0
      1931 MEMB     18       SAPE     O13      O2L     -0.780000       15.9994           0
      1932 MEMB     18       SAPE     O14      O2L     -0.780000       15.9994           0
      1933 MEMB     18       SAPE     O12      OSLP    -0.570000       15.9994           0
      1934 MEMB     18       SAPE     O11      OSLP    -0.570000       15.9994           0
      1935 MEMB     18       SAPE     C1       CTL2    -0.800000E-01   12.0110           0
      1936 MEMB     18       SAPE     HA       HAL2     0.900000E-01   1.00800           0
      1937 MEMB     18       SAPE     HB       HAL2     0.900000E-01   1.00800           0
      1938 MEMB     18       SAPE     C2       CTL1     0.170000       12.0110           0
      1939 MEMB     18       SAPE     HS       HAL1     0.900000E-01   1.00800           0
      1940 MEMB     18       SAPE     O21      OSL     -0.490000       15.9994           0
      1941 MEMB     18       SAPE     C21      CL       0.900000       12.0110           0
      1942 MEMB     18       SAPE     O22      OBL     -0.630000       15.9994           0
      1943 MEMB     18       SAPE     C22      CTL2    -0.220000       12.0110           0
      1944 MEMB     18       SAPE     H2R      HAL2     0.900000E-01   1.00800           0
      1945 MEMB     18       SAPE     H2S      HAL2     0.900000E-01   1.00800           0
      1946 MEMB     18       SAPE     C3       CTL2     0.800000E-01   12.0110           0
      1947 MEMB     18       SAPE     HX       HAL2     0.900000E-01   1.00800           0
      1948 MEMB     18       SAPE     HY       HAL2     0.900000E-01   1.00800           0
      1949 MEMB     18       SAPE     O31      OSL     -0.490000       15.9994           0
      1950 MEMB     18       SAPE     C31      CL       0.900000       12.0110           0
      1951 MEMB     18       SAPE     O32      OBL     -0.630000       15.9994           0
      1952 MEMB     18       SAPE     C32      CTL2    -0.220000       12.0110           0
      1953 MEMB     18       SAPE     H2X      HAL2     0.900000E-01   1.00800           0
      1954 MEMB     18       SAPE     H2Y      HAL2     0.900000E-01   1.00800           0
      1955 MEMB     18       SAPE     C23      CTL2    -0.180000       12.0110           0
      1956 MEMB     18       SAPE     H3R      HAL2     0.900000E-01   1.00800           0
      1957 MEMB     18       SAPE     H3S      HAL2     0.900000E-01   1.00800           0
      1958 MEMB     18       SAPE     C24      CTL2    -0.180000       12.0110           0
      1959 MEMB     18       SAPE     H4R      HAL2     0.900000E-01   1.00800           0
      1960 MEMB     18       SAPE     H4S      HAL2     0.900000E-01   1.00800           0
      1961 MEMB     18       SAPE     C25      CEL1    -0.150000       12.0110           0
      1962 MEMB     18       SAPE     H5R      HEL1     0.150000       1.00800           0
      1963 MEMB     18       SAPE     C26      CEL1    -0.150000       12.0110           0
      1964 MEMB     18       SAPE     H6R      HEL1     0.150000       1.00800           0
      1965 MEMB     18       SAPE     C27      CTL2    -0.180000       12.0110           0
      1966 MEMB     18       SAPE     H7R      HAL2     0.900000E-01   1.00800           0
      1967 MEMB     18       SAPE     H7S      HAL2     0.900000E-01   1.00800           0
      1968 MEMB     18       SAPE     C28      CEL1    -0.150000       12.0110           0
      1969 MEMB     18       SAPE     H8R      HEL1     0.150000       1.00800           0
      1970 MEMB     18       SAPE     C29      CEL1    -0.150000       12.0110           0
      1971 MEMB     18       SAPE     H9R      HEL1     0.150000       1.00800           0
      1972 MEMB     18       SAPE     C210     CTL2    -0.180000       12.0110           0
      1973 MEMB     18       SAPE     H10R     HAL2     0.900000E-01   1.00800           0
      1974 MEMB     18       SAPE     H10S     HAL2     0.900000E-01   1.00800           0
      1975 MEMB     18       SAPE     C211     CEL1    -0.150000       12.0110           0
      1976 MEMB     18       SAPE     H11R     HEL1     0.150000       1.00800           0
      1977 MEMB     18       SAPE     C212     CEL1    -0.150000       12.0110           0
      1978 MEMB     18       SAPE     H12R     HEL1     0.150000       1.00800           0
      1979 MEMB     18       SAPE     C213     CTL2    -0.180000       12.0110           0
      1980 MEMB     18       SAPE     H13R     HAL2     0.900000E-01   1.00800           0
      1981 MEMB     18       SAPE     H13S     HAL2     0.900000E-01   1.00800           0
      1982 MEMB     18       SAPE     C214     CEL1    -0.150000       12.0110           0
      1983 MEMB     18       SAPE     H14R     HEL1     0.150000       1.00800           0
      1984 MEMB     18       SAPE     C215     CEL1    -0.150000       12.0110           0
      1985 MEMB     18       SAPE     H15R     HEL1     0.150000       1.00800           0
      1986 MEMB     18       SAPE     C216     CTL2    -0.180000       12.0110           0
      1987 MEMB     18       SAPE     H16R     HAL2     0.900000E-01   1.00800           0
      1988 MEMB     18       SAPE     H16S     HAL2     0.900000E-01   1.00800           0
      1989 MEMB     18       SAPE     C217     CTL2    -0.180000       12.0110           0
      1990 MEMB     18       SAPE     H17R     HAL2     0.900000E-01   1.00800           0
      1991 MEMB     18       SAPE     H17S     HAL2     0.900000E-01   1.00800           0
      1992 MEMB     18       SAPE     C218     CTL2    -0.180000       12.0110           0
      1993 MEMB     18       SAPE     H18R     HAL2     0.900000E-01   1.00800           0
      1994 MEMB     18       SAPE     H18S     HAL2     0.900000E-01   1.00800           0
      1995 MEMB     18       SAPE     C219     CTL2    -0.180000       12.0110           0
      1996 MEMB     18       SAPE     H19R     HAL2     0.900000E-01   1.00800           0
      1997 MEMB     18       SAPE     H19S     HAL2     0.900000E-01   1.00800           0
      1998 MEMB     18       SAPE     C220     CTL3    -0.270000       12.0110           0
      1999 MEMB     18       SAPE     H20R     HAL3     0.900000E-01   1.00800           0
      2000 MEMB     18       SAPE     H20S     HAL3     0.900000E-01   1.00800           0
      2001 MEMB     18       SAPE     H20T     HAL3     0.900000E-01   1.00800           0
      2002 MEMB     18       SAPE     C33      CTL2    -0.180000       12.0110           0
      2003 MEMB     18       SAPE     H3X      HAL2     0.900000E-01   1.00800           0
      2004 MEMB     18       SAPE     H3Y      HAL2     0.900000E-01   1.00800           0
      2005 MEMB     18       SAPE     C34      CTL2    -0.180000       12.0110           0
      2006 MEMB     18       SAPE     H4X      HAL2     0.900000E-01   1.00800           0
      2007 MEMB     18       SAPE     H4Y      HAL2     0.900000E-01   1.00800           0
      2008 MEMB     18       SAPE     C35      CTL2    -0.180000       12.0110           0
      2009 MEMB     18       SAPE     H5X      HAL2     0.900000E-01   1.00800           0
      2010 MEMB     18       SAPE     H5Y      HAL2     0.900000E-01   1.00800           0
      2011 MEMB     18       SAPE     C36      CTL2    -0.180000       12.0110           0
      2012 MEMB     18       SAPE     H6X      HAL2     0.900000E-01   1.00800           0
      2013 MEMB     18       SAPE     H6Y      HAL2     0.900000E-01   1.00800           0
      2014 MEMB     18       SAPE     C37      CTL2    -0.180000       12.0110           0
      2015 MEMB     18       SAPE     H7X      HAL2     0.900000E-01   1.00800           0
      2016 MEMB     18       SAPE     H7Y      HAL2     0.900000E-01   1.00800           0
      2017 MEMB     18       SAPE     C38      CTL2    -0.180000       12.0110           0
      2018 MEMB     18       SAPE     H8X      HAL2     0.900000E-01   1.00800           0
      2019 MEMB     18       SAPE     H8Y      HAL2     0.900000E-01   1.00800           0
      2020 MEMB     18       SAPE     C39      CTL2    -0.180000       12.0110           0
      2021 MEMB     18       SAPE     H9X      HAL2     0.900000E-01   1.00800           0
      2022 MEMB     18       SAPE     H9Y      HAL2     0.900000E-01   1.00800           0
      2023 MEMB     18       SAPE     C310     CTL2    -0.180000       12.0110           0
      2024 MEMB     18       SAPE     H10X     HAL2     0.900000E-01   1.00800           0
      2025 MEMB     18       SAPE     H10Y     HAL2     0.900000E-01   1.00800           0
      2026 MEMB     18       SAPE     C311     CTL2    -0.180000       12.0110           0
      2027 MEMB     18       SAPE     H11X     HAL2     0.900000E-01   1.00800           0
      2028 MEMB     18       SAPE     H11Y     HAL2     0.900000E-01   1.00800           0
      2029 MEMB     18       SAPE     C312     CTL2    -0.180000       12.0110           0
      2030 MEMB     18       SAPE     H12X     HAL2     0.900000E-01   1.00800           0
      2031 MEMB     18       SAPE     H12Y     HAL2     0.900000E-01   1.00800           0
      2032 MEMB     18       SAPE     C313     CTL2    -0.180000       12.0110           0
      2033 MEMB     18       SAPE     H13X     HAL2     0.900000E-01   1.00800           0
      2034 MEMB     18       SAPE     H13Y     HAL2     0.900000E-01   1.00800           0
      2035 MEMB     18       SAPE     C314     CTL2    -0.180000       12.0110           0
      2036 MEMB     18       SAPE     H14X     HAL2     0.900000E-01   1.00800           0
      2037 MEMB     18       SAPE     H14Y     HAL2     0.900000E-01   1.00800           0
      2038 MEMB     18       SAPE     C315     CTL2    -0.180000       12.0110           0
      2039 MEMB     18       SAPE     H15X     HAL2     0.900000E-01   1.00800           0
      2040 MEMB     18       SAPE     H15Y     HAL2     0.900000E-01   1.00800           0
      2041 MEMB     18       SAPE     C316     CTL2    -0.180000       12.0110           0
      2042 MEMB     18       SAPE     H16X     HAL2     0.900000E-01   1.00800           0
      2043 MEMB     18       SAPE     H16Y     HAL2     0.900000E-01   1.00800           0
      2044 MEMB     18       SAPE     C317     CTL2    -0.180000       12.0110           0
      2045 MEMB     18       SAPE     H17X     HAL2     0.900000E-01   1.00800           0
      2046 MEMB     18       SAPE     H17Y     HAL2     0.900000E-01   1.00800           0
      2047 MEMB     18       SAPE     C318     CTL3    -0.270000       12.0110           0
      2048 MEMB     18       SAPE     H18X     HAL3     0.900000E-01   1.00800           0
      2049 MEMB     18       SAPE     H18Y     HAL3     0.900000E-01   1.00800           0
      2050 MEMB     18       SAPE     H18Z     HAL3     0.900000E-01   1.00800           0
      2051 MEMB     19       CHL1     C3       CRL1     0.140000       12.0110           0
      2052 MEMB     19       CHL1     H3       HGA1     0.900000E-01   1.00800           0
      2053 MEMB     19       CHL1     O3       OHL     -0.660000       15.9994           0
      2054 MEMB     19       CHL1     H3'      HOL      0.430000       1.00800           0
      2055 MEMB     19       CHL1     C4       CRL2    -0.180000       12.0110           0
      2056 MEMB     19       CHL1     H4A      HGA2     0.900000E-01   1.00800           0
      2057 MEMB     19       CHL1     H4B      HGA2     0.900000E-01   1.00800           0
      2058 MEMB     19       CHL1     C5       CEL1      0.00000       12.0110           0
      2059 MEMB     19       CHL1     C6       CEL1    -0.150000       12.0110           0
      2060 MEMB     19       CHL1     H6       HEL1     0.150000       1.00800           0
      2061 MEMB     19       CHL1     C7       CRL2    -0.180000       12.0110           0
      2062 MEMB     19       CHL1     H7A      HGA2     0.900000E-01   1.00800           0
      2063 MEMB     19       CHL1     H7B      HGA2     0.900000E-01   1.00800           0
      2064 MEMB     19       CHL1     C8       CRL1    -0.900000E-01   12.0110           0
      2065 MEMB     19       CHL1     H8       HGA1     0.900000E-01   1.00800           0
      2066 MEMB     19       CHL1     C14      CRL1    -0.900000E-01   12.0110           0
      2067 MEMB     19       CHL1     H14      HGA1     0.900000E-01   1.00800           0
      2068 MEMB     19       CHL1     C15      CRL2    -0.180000       12.0110           0
      2069 MEMB     19       CHL1     H15A     HGA2     0.900000E-01   1.00800           0
      2070 MEMB     19       CHL1     H15B     HGA2     0.900000E-01   1.00800           0
      2071 MEMB     19       CHL1     C16      CRL2    -0.180000       12.0110           0
      2072 MEMB     19       CHL1     H16A     HGA2     0.900000E-01   1.00800           0
      2073 MEMB     19       CHL1     H16B     HGA2     0.900000E-01   1.00800           0
      2074 MEMB     19       CHL1     C17      CRL1    -0.900000E-01   12.0110           0
      2075 MEMB     19       CHL1     H17      HGA1     0.900000E-01   1.00800           0
      2076 MEMB     19       CHL1     C13      CRL1      0.00000       12.0110           0
      2077 MEMB     19       CHL1     C18      CTL3    -0.270000       12.0110           0
      2078 MEMB     19       CHL1     H18A     HAL3     0.900000E-01   1.00800           0
      2079 MEMB     19       CHL1     H18B     HAL3     0.900000E-01   1.00800           0
      2080 MEMB     19       CHL1     H18C     HAL3     0.900000E-01   1.00800           0
      2081 MEMB     19       CHL1     C12      CRL2    -0.180000       12.0110           0
      2082 MEMB     19       CHL1     H12A     HGA2     0.900000E-01   1.00800           0
      2083 MEMB     19       CHL1     H12B     HGA2     0.900000E-01   1.00800           0
      2084 MEMB     19       CHL1     C11      CRL2    -0.180000       12.0110           0
      2085 MEMB     19       CHL1     H11A     HGA2     0.900000E-01   1.00800           0
      2086 MEMB     19       CHL1     H11B     HGA2     0.900000E-01   1.00800           0
      2087 MEMB     19       CHL1     C9       CRL1    -0.900000E-01   12.0110           0
      2088 MEMB     19       CHL1     H9       HGA1     0.900000E-01   1.00800           0
      2089 MEMB     19       CHL1     C10      CRL1      0.00000       12.0110           0
      2090 MEMB     19       CHL1     C19      CTL3    -0.270000       12.0110           0
      2091 MEMB     19       CHL1     H19A     HAL3     0.900000E-01   1.00800           0
      2092 MEMB     19       CHL1     H19B     HAL3     0.900000E-01   1.00800           0
      2093 MEMB     19       CHL1     H19C     HAL3     0.900000E-01   1.00800           0
      2094 MEMB     19       CHL1     C1       CRL2    -0.180000       12.0110           0
      2095 MEMB     19       CHL1     H1A      HGA2     0.900000E-01   1.00800           0
      2096 MEMB     19       CHL1     H1B      HGA2     0.900000E-01   1.00800           0
      2097 MEMB     19       CHL1     C2       CRL2    -0.180000       12.0110           0
      2098 MEMB     19       CHL1     H2A      HGA2     0.900000E-01   1.00800           0
      2099 MEMB     19       CHL1     H2B      HGA2     0.900000E-01   1.00800           0
      2100 MEMB     19       CHL1     C20      CTL1    -0.900000E-01   12.0110           0
      2101 MEMB     19       CHL1     H20      HAL1     0.900000E-01   1.00800           0
      2102 MEMB     19       CHL1     C21      CTL3    -0.270000       12.0110           0
      2103 MEMB     19       CHL1     H21A     HAL3     0.900000E-01   1.00800           0
      2104 MEMB     19       CHL1     H21B     HAL3     0.900000E-01   1.00800           0
      2105 MEMB     19       CHL1     H21C     HAL3     0.900000E-01   1.00800           0
      2106 MEMB     19       CHL1     C22      CTL2    -0.180000       12.0110           0
      2107 MEMB     19       CHL1     H22A     HAL2     0.900000E-01   1.00800           0
      2108 MEMB     19       CHL1     H22B     HAL2     0.900000E-01   1.00800           0
      2109 MEMB     19       CHL1     C23      CTL2    -0.180000       12.0110           0
      2110 MEMB     19       CHL1     H23A     HAL2     0.900000E-01   1.00800           0
      2111 MEMB     19       CHL1     H23B     HAL2     0.900000E-01   1.00800           0
      2112 MEMB     19       CHL1     C24      CTL2    -0.180000       12.0110           0
      2113 MEMB     19       CHL1     H24A     HAL2     0.900000E-01   1.00800           0
      2114 MEMB     19       CHL1     H24B     HAL2     0.900000E-01   1.00800           0
      2115 MEMB     19       CHL1     C25      CTL1    -0.900000E-01   12.0110           0
      2116 MEMB     19       CHL1     H25      HAL1     0.900000E-01   1.00800           0
      2117 MEMB     19       CHL1     C26      CTL3    -0.270000       12.0110           0
      2118 MEMB     19       CHL1     H26A     HAL3     0.900000E-01   1.00800           0
      2119 MEMB     19       CHL1     H26B     HAL3     0.900000E-01   1.00800           0
      2120 MEMB     19       CHL1     H26C     HAL3     0.900000E-01   1.00800           0
      2121 MEMB     19       CHL1     C27      CTL3    -0.270000       12.0110           0
      2122 MEMB     19       CHL1     H27A     HAL3     0.900000E-01   1.00800           0
      2123 MEMB     19       CHL1     H27B     HAL3     0.900000E-01   1.00800           0
      2124 MEMB     19       CHL1     H27C     HAL3     0.900000E-01   1.00800           0
      2125 MEMB     20       CHL1     C3       CRL1     0.140000       12.0110           0
      2126 MEMB     20       CHL1     H3       HGA1     0.900000E-01   1.00800           0
      2127 MEMB     20       CHL1     O3       OHL     -0.660000       15.9994           0
      2128 MEMB     20       CHL1     H3'      HOL      0.430000       1.00800           0
      2129 MEMB     20       CHL1     C4       CRL2    -0.180000       12.0110           0
      2130 MEMB     20       CHL1     H4A      HGA2     0.900000E-01   1.00800           0
      2131 MEMB     20       CHL1     H4B      HGA2     0.900000E-01   1.00800           0
      2132 MEMB     20       CHL1     C5       CEL1      0.00000       12.0110           0
      2133 MEMB     20       CHL1     C6       CEL1    -0.150000       12.0110           0
      2134 MEMB     20       CHL1     H6       HEL1     0.150000       1.00800           0
      2135 MEMB     20       CHL1     C7       CRL2    -0.180000       12.0110           0
      2136 MEMB     20       CHL1     H7A      HGA2     0.900000E-01   1.00800           0
      2137 MEMB     20       CHL1     H7B      HGA2     0.900000E-01   1.00800           0
      2138 MEMB     20       CHL1     C8       CRL1    -0.900000E-01   12.0110           0
      2139 MEMB     20       CHL1     H8       HGA1     0.900000E-01   1.00800           0
      2140 MEMB     20       CHL1     C14      CRL1    -0.900000E-01   12.0110           0
      2141 MEMB     20       CHL1     H14      HGA1     0.900000E-01   1.00800           0
      2142 MEMB     20       CHL1     C15      CRL2    -0.180000       12.0110           0
      2143 MEMB     20       CHL1     H15A     HGA2     0.900000E-01   1.00800           0
      2144 MEMB     20       CHL1     H15B     HGA2     0.900000E-01   1.00800           0
      2145 MEMB     20       CHL1     C16      CRL2    -0.180000       12.0110           0
      2146 MEMB     20       CHL1     H16A     HGA2     0.900000E-01   1.00800           0
      2147 MEMB     20       CHL1     H16B     HGA2     0.900000E-01   1.00800           0
      2148 MEMB     20       CHL1     C17      CRL1    -0.900000E-01   12.0110           0
      2149 MEMB     20       CHL1     H17      HGA1     0.900000E-01   1.00800           0
      2150 MEMB     20       CHL1     C13      CRL1      0.00000       12.0110           0
      2151 MEMB     20       CHL1     C18      CTL3    -0.270000       12.0110           0
      2152 MEMB     20       CHL1     H18A     HAL3     0.900000E-01   1.00800           0
      2153 MEMB     20       CHL1     H18B     HAL3     0.900000E-01   1.00800           0
      2154 MEMB     20       CHL1     H18C     HAL3     0.900000E-01   1.00800           0
      2155 MEMB     20       CHL1     C12      CRL2    -0.180000       12.0110           0
      2156 MEMB     20       CHL1     H12A     HGA2     0.900000E-01   1.00800           0
      2157 MEMB     20       CHL1     H12B     HGA2     0.900000E-01   1.00800           0
      2158 MEMB     20       CHL1     C11      CRL2    -0.180000       12.0110           0
      2159 MEMB     20       CHL1     H11A     HGA2     0.900000E-01   1.00800           0
      2160 MEMB     20       CHL1     H11B     HGA2     0.900000E-01   1.00800           0
      2161 MEMB     20       CHL1     C9       CRL1    -0.900000E-01   12.0110           0
      2162 MEMB     20       CHL1     H9       HGA1     0.900000E-01   1.00800           0
      2163 MEMB     20       CHL1     C10      CRL1      0.00000       12.0110           0
      2164 MEMB     20       CHL1     C19      CTL3    -0.270000       12.0110           0
      2165 MEMB     20       CHL1     H19A     HAL3     0.900000E-01   1.00800           0
      2166 MEMB     20       CHL1     H19B     HAL3     0.900000E-01   1.00800           0
      2167 MEMB     20       CHL1     H19C     HAL3     0.900000E-01   1.00800           0
      2168 MEMB     20       CHL1     C1       CRL2    -0.180000       12.0110           0
      2169 MEMB     20       CHL1     H1A      HGA2     0.900000E-01   1.00800           0
      2170 MEMB     20       CHL1     H1B      HGA2     0.900000E-01   1.00800           0
      2171 MEMB     20       CHL1     C2       CRL2    -0.180000       12.0110           0
      2172 MEMB     20       CHL1     H2A      HGA2     0.900000E-01   1.00800           0
      2173 MEMB     20       CHL1     H2B      HGA2     0.900000E-01   1.00800           0
      2174 MEMB     20       CHL1     C20      CTL1    -0.900000E-01   12.0110           0
      2175 MEMB     20       CHL1     H20      HAL1     0.900000E-01   1.00800           0
      2176 MEMB     20       CHL1     C21      CTL3    -0.270000       12.0110           0
      2177 MEMB     20       CHL1     H21A     HAL3     0.900000E-01   1.00800           0
      2178 MEMB     20       CHL1     H21B     HAL3     0.900000E-01   1.00800           0
      2179 MEMB     20       CHL1     H21C     HAL3     0.900000E-01   1.00800           0
      2180 MEMB     20       CHL1     C22      CTL2    -0.180000       12.0110           0
      2181 MEMB     20       CHL1     H22A     HAL2     0.900000E-01   1.00800           0
      2182 MEMB     20       CHL1     H22B     HAL2     0.900000E-01   1.00800           0
      2183 MEMB     20       CHL1     C23      CTL2    -0.180000       12.0110           0
      2184 MEMB     20       CHL1     H23A     HAL2     0.900000E-01   1.00800           0
      2185 MEMB     20       CHL1     H23B     HAL2     0.900000E-01   1.00800           0
      2186 MEMB     20       CHL1     C24      CTL2    -0.180000       12.0110           0
      2187 MEMB     20       CHL1     H24A     HAL2     0.900000E-01   1.00800           0
      2188 MEMB     20       CHL1     H24B     HAL2     0.900000E-01   1.00800           0
      2189 MEMB     20       CHL1     C25      CTL1    -0.900000E-01   12.0110           0
      2190 MEMB     20       CHL1     H25      HAL1     0.900000E-01   1.00800           0
      2191 MEMB     20       CHL1     C26      CTL3    -0.270000       12.0110           0
      2192 MEMB     20       CHL1     H26A     HAL3     0.900000E-01   1.00800           0
      2193 MEMB     20       CHL1     H26B     HAL3     0.900000E-01   1.00800           0
      2194 MEMB     20       CHL1     H26C     HAL3     0.900000E-01   1.00800           0
      2195 MEMB     20       CHL1     C27      CTL3    -0.270000       12.0110           0
      2196 MEMB     20       CHL1     H27A     HAL3     0.900000E-01   1.00800           0
      2197 MEMB     20       CHL1     H27B     HAL3     0.900000E-01   1.00800           0
      2198 MEMB     20       CHL1     H27C     HAL3     0.900000E-01   1.00800           0
      2199 MEMB     21       OSM      N        NTL     -0.600000       14.0070           0
      2200 MEMB     21       OSM      C15      CTL5    -0.350000       12.0110           0
      2201 MEMB     21       OSM      H15A     HL       0.250000       1.00800           0
      2202 MEMB     21       OSM      H15B     HL       0.250000       1.00800           0
      2203 MEMB     21       OSM      H15C     HL       0.250000       1.00800           0
      2204 MEMB     21       OSM      C14      CTL5    -0.350000       12.0110           0
      2205 MEMB     21       OSM      H14A     HL       0.250000       1.00800           0
      2206 MEMB     21       OSM      H14B     HL       0.250000       1.00800           0
      2207 MEMB     21       OSM      H14C     HL       0.250000       1.00800           0
      2208 MEMB     21       OSM      C13      CTL5    -0.350000       12.0110           0
      2209 MEMB     21       OSM      H13A     HL       0.250000       1.00800           0
      2210 MEMB     21       OSM      H13B     HL       0.250000       1.00800           0
      2211 MEMB     21       OSM      H13C     HL       0.250000       1.00800           0
      2212 MEMB     21       OSM      C12      CTL2    -0.100000       12.0110           0
      2213 MEMB     21       OSM      H12A     HL       0.250000       1.00800           0
      2214 MEMB     21       OSM      H12B     HL       0.250000       1.00800           0
      2215 MEMB     21       OSM      C11      CTL2    -0.800000E-01   12.0110           0
      2216 MEMB     21       OSM      H11A     HAL2     0.900000E-01   1.00800           0
      2217 MEMB     21       OSM      H11B     HAL2     0.900000E-01   1.00800           0
      2218 MEMB     21       OSM      P        PL        1.50000       30.9740           0
      2219 MEMB     21       OSM      O13      O2L     -0.780000       15.9994           0
      2220 MEMB     21       OSM      O14      O2L     -0.780000       15.9994           0
      2221 MEMB     21       OSM      O11      OSLP    -0.570000       15.9994           0
      2222 MEMB     21       OSM      O12      OSLP    -0.570000       15.9994           0
      2223 MEMB     21       OSM      C1S      CTL2    -0.800000E-01   12.0110           0
      2224 MEMB     21       OSM      H1S      HAL2     0.900000E-01   1.00800           0
      2225 MEMB     21       OSM      H1T      HAL2     0.900000E-01   1.00800           0
      2226 MEMB     21       OSM      NF       NHL     -0.700000       14.0070           0
      2227 MEMB     21       OSM      HNF      H        0.350000       1.00800           0
      2228 MEMB     21       OSM      C2S      CTL1     0.300000       12.0110           0
      2229 MEMB     21       OSM      H2S      HAL1     0.500000E-01   1.00800           0
      2230 MEMB     21       OSM      C3S      CTO1     0.500000       12.0110           0
      2231 MEMB     21       OSM      H3S      HAL1    -0.110000       1.00800           0
      2232 MEMB     21       OSM      O3       OHL     -0.690000       15.9994           0
      2233 MEMB     21       OSM      HO3      HOL      0.300000       1.00800           0
      2234 MEMB     21       OSM      C4S      CEL3    -0.150000       12.0110           0
      2235 MEMB     21       OSM      H4S      HEL1     0.150000       1.00800           0
      2236 MEMB     21       OSM      C5S      CEL3    -0.150000       12.0110           0
      2237 MEMB     21       OSM      H5S      HEL1     0.150000       1.00800           0
      2238 MEMB     21       OSM      C6S      CTL2    -0.180000       12.0110           0
      2239 MEMB     21       OSM      H6S      HAL2     0.900000E-01   1.00800           0
      2240 MEMB     21       OSM      H6T      HAL2     0.900000E-01   1.00800           0
      2241 MEMB     21       OSM      C7S      CTL2    -0.180000       12.0110           0
      2242 MEMB     21       OSM      H7S      HAL2     0.900000E-01   1.00800           0
      2243 MEMB     21       OSM      H7T      HAL2     0.900000E-01   1.00800           0
      2244 MEMB     21       OSM      C8S      CTL2    -0.180000       12.0110           0
      2245 MEMB     21       OSM      H8S      HAL2     0.900000E-01   1.00800           0
      2246 MEMB     21       OSM      H8T      HAL2     0.900000E-01   1.00800           0
      2247 MEMB     21       OSM      C9S      CTL2    -0.180000       12.0110           0
      2248 MEMB     21       OSM      H9S      HAL2     0.900000E-01   1.00800           0
      2249 MEMB     21       OSM      H9T      HAL2     0.900000E-01   1.00800           0
      2250 MEMB     21       OSM      C10S     CTL2    -0.180000       12.0110           0
      2251 MEMB     21       OSM      H10S     HAL2     0.900000E-01   1.00800           0
      2252 MEMB     21       OSM      H10T     HAL2     0.900000E-01   1.00800           0
      2253 MEMB     21       OSM      C11S     CTL2    -0.180000       12.0110           0
      2254 MEMB     21       OSM      H11S     HAL2     0.900000E-01   1.00800           0
      2255 MEMB     21       OSM      H11T     HAL2     0.900000E-01   1.00800           0
      2256 MEMB     21       OSM      C12S     CTL2    -0.180000       12.0110           0
      2257 MEMB     21       OSM      H12S     HAL2     0.900000E-01   1.00800           0
      2258 MEMB     21       OSM      H12T     HAL2     0.900000E-01   1.00800           0
      2259 MEMB     21       OSM      C13S     CTL2    -0.180000       12.0110           0
      2260 MEMB     21       OSM      H13S     HAL2     0.900000E-01   1.00800           0
      2261 MEMB     21       OSM      H13T     HAL2     0.900000E-01   1.00800           0
      2262 MEMB     21       OSM      C14S     CTL2    -0.180000       12.0110           0
      2263 MEMB     21       OSM      H14S     HAL2     0.900000E-01   1.00800           0
      2264 MEMB     21       OSM      H14T     HAL2     0.900000E-01   1.00800           0
      2265 MEMB     21       OSM      C15S     CTL2    -0.180000       12.0110           0
      2266 MEMB     21       OSM      H15S     HAL2     0.900000E-01   1.00800           0
      2267 MEMB     21       OSM      H15T     HAL2     0.900000E-01   1.00800           0
      2268 MEMB     21       OSM      C16S     CTL2    -0.180000       12.0110           0
      2269 MEMB     21       OSM      H16S     HAL2     0.900000E-01   1.00800           0
      2270 MEMB     21       OSM      H16T     HAL2     0.900000E-01   1.00800           0
      2271 MEMB     21       OSM      C17S     CTL2    -0.180000       12.0110           0
      2272 MEMB     21       OSM      H17S     HAL2     0.900000E-01   1.00800           0
      2273 MEMB     21       OSM      H17T     HAL2     0.900000E-01   1.00800           0
      2274 MEMB     21       OSM      C18S     CTL3    -0.270000       12.0110           0
      2275 MEMB     21       OSM      H18S     HAL3     0.900000E-01   1.00800           0
      2276 MEMB     21       OSM      H18T     HAL3     0.900000E-01   1.00800           0
      2277 MEMB     21       OSM      H18U     HAL3     0.900000E-01   1.00800           0
      2278 MEMB     21       OSM      C1F      C        0.550000       12.0110           0
      2279 MEMB     21       OSM      OF       O       -0.600000       15.9994           0
      2280 MEMB     21       OSM      C2F      CTL2    -0.700000E-01   12.0110           0
      2281 MEMB     21       OSM      H2F      HAL2     0.600000E-01   1.00800           0
      2282 MEMB     21       OSM      H2G      HAL2     0.600000E-01   1.00800           0
      2283 MEMB     21       OSM      C3F      CTL2    -0.180000       12.0110           0
      2284 MEMB     21       OSM      H3F      HAL2     0.900000E-01   1.00800           0
      2285 MEMB     21       OSM      H3G      HAL2     0.900000E-01   1.00800           0
      2286 MEMB     21       OSM      C4F      CTL2    -0.180000       12.0110           0
      2287 MEMB     21       OSM      H4F      HAL2     0.900000E-01   1.00800           0
      2288 MEMB     21       OSM      H4G      HAL2     0.900000E-01   1.00800           0
      2289 MEMB     21       OSM      C5F      CTL2    -0.180000       12.0110           0
      2290 MEMB     21       OSM      H5F      HAL2     0.900000E-01   1.00800           0
      2291 MEMB     21       OSM      H5G      HAL2     0.900000E-01   1.00800           0
      2292 MEMB     21       OSM      C6F      CTL2    -0.180000       12.0110           0
      2293 MEMB     21       OSM      H6F      HAL2     0.900000E-01   1.00800           0
      2294 MEMB     21       OSM      H6G      HAL2     0.900000E-01   1.00800           0
      2295 MEMB     21       OSM      C7F      CTL2    -0.180000       12.0110           0
      2296 MEMB     21       OSM      H7F      HAL2     0.900000E-01   1.00800           0
      2297 MEMB     21       OSM      H7G      HAL2     0.900000E-01   1.00800           0
      2298 MEMB     21       OSM      C8F      CTL2    -0.180000       12.0110           0
      2299 MEMB     21       OSM      H8F      HAL2     0.900000E-01   1.00800           0
      2300 MEMB     21       OSM      H8G      HAL2     0.900000E-01   1.00800           0
      2301 MEMB     21       OSM      C9F      CEL1    -0.150000       12.0110           0
      2302 MEMB     21       OSM      H9F      HEL1     0.150000       1.00800           0
      2303 MEMB     21       OSM      C10F     CEL1    -0.150000       12.0110           0
      2304 MEMB     21       OSM      H10F     HEL1     0.150000       1.00800           0
      2305 MEMB     21       OSM      C11F     CTL2    -0.180000       12.0110           0
      2306 MEMB     21       OSM      H11F     HAL2     0.900000E-01   1.00800           0
      2307 MEMB     21       OSM      H11G     HAL2     0.900000E-01   1.00800           0
      2308 MEMB     21       OSM      C12F     CTL2    -0.180000       12.0110           0
      2309 MEMB     21       OSM      H12F     HAL2     0.900000E-01   1.00800           0
      2310 MEMB     21       OSM      H12G     HAL2     0.900000E-01   1.00800           0
      2311 MEMB     21       OSM      C13F     CTL2    -0.180000       12.0110           0
      2312 MEMB     21       OSM      H13F     HAL2     0.900000E-01   1.00800           0
      2313 MEMB     21       OSM      H13G     HAL2     0.900000E-01   1.00800           0
      2314 MEMB     21       OSM      C14F     CTL2    -0.180000       12.0110           0
      2315 MEMB     21       OSM      H14F     HAL2     0.900000E-01   1.00800           0
      2316 MEMB     21       OSM      H14G     HAL2     0.900000E-01   1.00800           0
      2317 MEMB     21       OSM      C15F     CTL2    -0.180000       12.0110           0
      2318 MEMB     21       OSM      H15F     HAL2     0.900000E-01   1.00800           0
      2319 MEMB     21       OSM      H15G     HAL2     0.900000E-01   1.00800           0
      2320 MEMB     21       OSM      C16F     CTL2    -0.180000       12.0110           0
      2321 MEMB     21       OSM      H16F     HAL2     0.900000E-01   1.00800           0
      2322 MEMB     21       OSM      H16G     HAL2     0.900000E-01   1.00800           0
      2323 MEMB     21       OSM      C17F     CTL2    -0.180000       12.0110           0
      2324 MEMB     21       OSM      H17F     HAL2     0.900000E-01   1.00800           0
      2325 MEMB     21       OSM      H17G     HAL2     0.900000E-01   1.00800           0
      2326 MEMB     21       OSM      C18F     CTL3    -0.270000       12.0110           0
      2327 MEMB     21       OSM      H18F     HAL3     0.900000E-01   1.00800           0
      2328 MEMB     21       OSM      H18G     HAL3     0.900000E-01   1.00800           0
      2329 MEMB     21       OSM      H18H     HAL3     0.900000E-01   1.00800           0
      2330 MEMB     22       POPC     N        NTL     -0.600000       14.0070           0
      2331 MEMB     22       POPC     C12      CTL2    -0.100000       12.0110           0
      2332 MEMB     22       POPC     H12A     HL       0.250000       1.00800           0
      2333 MEMB     22       POPC     H12B     HL       0.250000       1.00800           0
      2334 MEMB     22       POPC     C13      CTL5    -0.350000       12.0110           0
      2335 MEMB     22       POPC     H13A     HL       0.250000       1.00800           0
      2336 MEMB     22       POPC     H13B     HL       0.250000       1.00800           0
      2337 MEMB     22       POPC     H13C     HL       0.250000       1.00800           0
      2338 MEMB     22       POPC     C14      CTL5    -0.350000       12.0110           0
      2339 MEMB     22       POPC     H14A     HL       0.250000       1.00800           0
      2340 MEMB     22       POPC     H14B     HL       0.250000       1.00800           0
      2341 MEMB     22       POPC     H14C     HL       0.250000       1.00800           0
      2342 MEMB     22       POPC     C15      CTL5    -0.350000       12.0110           0
      2343 MEMB     22       POPC     H15A     HL       0.250000       1.00800           0
      2344 MEMB     22       POPC     H15B     HL       0.250000       1.00800           0
      2345 MEMB     22       POPC     H15C     HL       0.250000       1.00800           0
      2346 MEMB     22       POPC     C11      CTL2    -0.800000E-01   12.0110           0
      2347 MEMB     22       POPC     H11A     HAL2     0.900000E-01   1.00800           0
      2348 MEMB     22       POPC     H11B     HAL2     0.900000E-01   1.00800           0
      2349 MEMB     22       POPC     P        PL        1.50000       30.9740           0
      2350 MEMB     22       POPC     O13      O2L     -0.780000       15.9994           0
      2351 MEMB     22       POPC     O14      O2L     -0.780000       15.9994           0
      2352 MEMB     22       POPC     O12      OSLP    -0.570000       15.9994           0
      2353 MEMB     22       POPC     O11      OSLP    -0.570000       15.9994           0
      2354 MEMB     22       POPC     C1       CTL2    -0.800000E-01   12.0110           0
      2355 MEMB     22       POPC     HA       HAL2     0.900000E-01   1.00800           0
      2356 MEMB     22       POPC     HB       HAL2     0.900000E-01   1.00800           0
      2357 MEMB     22       POPC     C2       CTL1     0.170000       12.0110           0
      2358 MEMB     22       POPC     HS       HAL1     0.900000E-01   1.00800           0
      2359 MEMB     22       POPC     O21      OSL     -0.490000       15.9994           0
      2360 MEMB     22       POPC     C21      CL       0.900000       12.0110           0
      2361 MEMB     22       POPC     O22      OBL     -0.630000       15.9994           0
      2362 MEMB     22       POPC     C22      CTL2    -0.220000       12.0110           0
      2363 MEMB     22       POPC     H2R      HAL2     0.900000E-01   1.00800           0
      2364 MEMB     22       POPC     H2S      HAL2     0.900000E-01   1.00800           0
      2365 MEMB     22       POPC     C3       CTL2     0.800000E-01   12.0110           0
      2366 MEMB     22       POPC     HX       HAL2     0.900000E-01   1.00800           0
      2367 MEMB     22       POPC     HY       HAL2     0.900000E-01   1.00800           0
      2368 MEMB     22       POPC     O31      OSL     -0.490000       15.9994           0
      2369 MEMB     22       POPC     C31      CL       0.900000       12.0110           0
      2370 MEMB     22       POPC     O32      OBL     -0.630000       15.9994           0
      2371 MEMB     22       POPC     C32      CTL2    -0.220000       12.0110           0
      2372 MEMB     22       POPC     H2X      HAL2     0.900000E-01   1.00800           0
      2373 MEMB     22       POPC     H2Y      HAL2     0.900000E-01   1.00800           0
      2374 MEMB     22       POPC     C23      CTL2    -0.180000       12.0110           0
      2375 MEMB     22       POPC     H3R      HAL2     0.900000E-01   1.00800           0
      2376 MEMB     22       POPC     H3S      HAL2     0.900000E-01   1.00800           0
      2377 MEMB     22       POPC     C24      CTL2    -0.180000       12.0110           0
      2378 MEMB     22       POPC     H4R      HAL2     0.900000E-01   1.00800           0
      2379 MEMB     22       POPC     H4S      HAL2     0.900000E-01   1.00800           0
      2380 MEMB     22       POPC     C25      CTL2    -0.180000       12.0110           0
      2381 MEMB     22       POPC     H5R      HAL2     0.900000E-01   1.00800           0
      2382 MEMB     22       POPC     H5S      HAL2     0.900000E-01   1.00800           0
      2383 MEMB     22       POPC     C26      CTL2    -0.180000       12.0110           0
      2384 MEMB     22       POPC     H6R      HAL2     0.900000E-01   1.00800           0
      2385 MEMB     22       POPC     H6S      HAL2     0.900000E-01   1.00800           0
      2386 MEMB     22       POPC     C27      CTL2    -0.180000       12.0110           0
      2387 MEMB     22       POPC     H7R      HAL2     0.900000E-01   1.00800           0
      2388 MEMB     22       POPC     H7S      HAL2     0.900000E-01   1.00800           0
      2389 MEMB     22       POPC     C28      CTL2    -0.180000       12.0110           0
      2390 MEMB     22       POPC     H8R      HAL2     0.900000E-01   1.00800           0
      2391 MEMB     22       POPC     H8S      HAL2     0.900000E-01   1.00800           0
      2392 MEMB     22       POPC     C29      CEL1    -0.150000       12.0110           0
      2393 MEMB     22       POPC     H91      HEL1     0.150000       1.00800           0
      2394 MEMB     22       POPC     C210     CEL1    -0.150000       12.0110           0
      2395 MEMB     22       POPC     H101     HEL1     0.150000       1.00800           0
      2396 MEMB     22       POPC     C211     CTL2    -0.180000       12.0110           0
      2397 MEMB     22       POPC     H11R     HAL2     0.900000E-01   1.00800           0
      2398 MEMB     22       POPC     H11S     HAL2     0.900000E-01   1.00800           0
      2399 MEMB     22       POPC     C212     CTL2    -0.180000       12.0110           0
      2400 MEMB     22       POPC     H12R     HAL2     0.900000E-01   1.00800           0
      2401 MEMB     22       POPC     H12S     HAL2     0.900000E-01   1.00800           0
      2402 MEMB     22       POPC     C213     CTL2    -0.180000       12.0110           0
      2403 MEMB     22       POPC     H13R     HAL2     0.900000E-01   1.00800           0
      2404 MEMB     22       POPC     H13S     HAL2     0.900000E-01   1.00800           0
      2405 MEMB     22       POPC     C214     CTL2    -0.180000       12.0110           0
      2406 MEMB     22       POPC     H14R     HAL2     0.900000E-01   1.00800           0
      2407 MEMB     22       POPC     H14S     HAL2     0.900000E-01   1.00800           0
      2408 MEMB     22       POPC     C215     CTL2    -0.180000       12.0110           0
      2409 MEMB     22       POPC     H15R     HAL2     0.900000E-01   1.00800           0
      2410 MEMB     22       POPC     H15S     HAL2     0.900000E-01   1.00800           0
      2411 MEMB     22       POPC     C216     CTL2    -0.180000       12.0110           0
      2412 MEMB     22       POPC     H16R     HAL2     0.900000E-01   1.00800           0
      2413 MEMB     22       POPC     H16S     HAL2     0.900000E-01   1.00800           0
      2414 MEMB     22       POPC     C217     CTL2    -0.180000       12.0110           0
      2415 MEMB     22       POPC     H17R     HAL2     0.900000E-01   1.00800           0
      2416 MEMB     22       POPC     H17S     HAL2     0.900000E-01   1.00800           0
      2417 MEMB     22       POPC     C218     CTL3    -0.270000       12.0110           0
      2418 MEMB     22       POPC     H18R     HAL3     0.900000E-01   1.00800           0
      2419 MEMB     22       POPC     H18S     HAL3     0.900000E-01   1.00800           0
      2420 MEMB     22       POPC     H18T     HAL3     0.900000E-01   1.00800           0
      2421 MEMB     22       POPC     C33      CTL2    -0.180000       12.0110           0
      2422 MEMB     22       POPC     H3X      HAL2     0.900000E-01   1.00800           0
      2423 MEMB     22       POPC     H3Y      HAL2     0.900000E-01   1.00800           0
      2424 MEMB     22       POPC     C34      CTL2    -0.180000       12.0110           0
      2425 MEMB     22       POPC     H4X      HAL2     0.900000E-01   1.00800           0
      2426 MEMB     22       POPC     H4Y      HAL2     0.900000E-01   1.00800           0
      2427 MEMB     22       POPC     C35      CTL2    -0.180000       12.0110           0
      2428 MEMB     22       POPC     H5X      HAL2     0.900000E-01   1.00800           0
      2429 MEMB     22       POPC     H5Y      HAL2     0.900000E-01   1.00800           0
      2430 MEMB     22       POPC     C36      CTL2    -0.180000       12.0110           0
      2431 MEMB     22       POPC     H6X      HAL2     0.900000E-01   1.00800           0
      2432 MEMB     22       POPC     H6Y      HAL2     0.900000E-01   1.00800           0
      2433 MEMB     22       POPC     C37      CTL2    -0.180000       12.0110           0
      2434 MEMB     22       POPC     H7X      HAL2     0.900000E-01   1.00800           0
      2435 MEMB     22       POPC     H7Y      HAL2     0.900000E-01   1.00800           0
      2436 MEMB     22       POPC     C38      CTL2    -0.180000       12.0110           0
      2437 MEMB     22       POPC     H8X      HAL2     0.900000E-01   1.00800           0
      2438 MEMB     22       POPC     H8Y      HAL2     0.900000E-01   1.00800           0
      2439 MEMB     22       POPC     C39      CTL2    -0.180000       12.0110           0
      2440 MEMB     22       POPC     H9X      HAL2     0.900000E-01   1.00800           0
      2441 MEMB     22       POPC     H9Y      HAL2     0.900000E-01   1.00800           0
      2442 MEMB     22       POPC     C310     CTL2    -0.180000       12.0110           0
      2443 MEMB     22       POPC     H10X     HAL2     0.900000E-01   1.00800           0
      2444 MEMB     22       POPC     H10Y     HAL2     0.900000E-01   1.00800           0
      2445 MEMB     22       POPC     C311     CTL2    -0.180000       12.0110           0
      2446 MEMB     22       POPC     H11X     HAL2     0.900000E-01   1.00800           0
      2447 MEMB     22       POPC     H11Y     HAL2     0.900000E-01   1.00800           0
      2448 MEMB     22       POPC     C312     CTL2    -0.180000       12.0110           0
      2449 MEMB     22       POPC     H12X     HAL2     0.900000E-01   1.00800           0
      2450 MEMB     22       POPC     H12Y     HAL2     0.900000E-01   1.00800           0
      2451 MEMB     22       POPC     C313     CTL2    -0.180000       12.0110           0
      2452 MEMB     22       POPC     H13X     HAL2     0.900000E-01   1.00800           0
      2453 MEMB     22       POPC     H13Y     HAL2     0.900000E-01   1.00800           0
      2454 MEMB     22       POPC     C314     CTL2    -0.180000       12.0110           0
      2455 MEMB     22       POPC     H14X     HAL2     0.900000E-01   1.00800           0
      2456 MEMB     22       POPC     H14Y     HAL2     0.900000E-01   1.00800           0
      2457 MEMB     22       POPC     C315     CTL2    -0.180000       12.0110           0
      2458 MEMB     22       POPC     H15X     HAL2     0.900000E-01   1.00800           0
      2459 MEMB     22       POPC     H15Y     HAL2     0.900000E-01   1.00800           0
      2460 MEMB     22       POPC     C316     CTL3    -0.270000       12.0110           0
      2461 MEMB     22       POPC     H16X     HAL3     0.900000E-01   1.00800           0
      2462 MEMB     22       POPC     H16Y     HAL3     0.900000E-01   1.00800           0
      2463 MEMB     22       POPC     H16Z     HAL3     0.900000E-01   1.00800           0
      2464 MEMB     23       SAPS     N        NH3L    -0.300000       14.0070           0
      2465 MEMB     23       SAPS     HN1      HCL      0.330000       1.00800           0
      2466 MEMB     23       SAPS     HN2      HCL      0.330000       1.00800           0
      2467 MEMB     23       SAPS     HN3      HCL      0.330000       1.00800           0
      2468 MEMB     23       SAPS     C12      CTL1     0.210000       12.0110           0
      2469 MEMB     23       SAPS     H12A     HBL      0.100000       1.00800           0
      2470 MEMB     23       SAPS     C13      CCL      0.340000       12.0110           0
      2471 MEMB     23       SAPS     O13A     OCL     -0.670000       15.9994           0
      2472 MEMB     23       SAPS     O13B     OCL     -0.670000       15.9994           0
      2473 MEMB     23       SAPS     C11      CTL2    -0.800000E-01   12.0110           0
      2474 MEMB     23       SAPS     H11A     HAL2     0.900000E-01   1.00800           0
      2475 MEMB     23       SAPS     H11B     HAL2     0.900000E-01   1.00800           0
      2476 MEMB     23       SAPS     P        PL        1.50000       30.9740           0
      2477 MEMB     23       SAPS     O13      O2L     -0.780000       15.9994           0
      2478 MEMB     23       SAPS     O14      O2L     -0.780000       15.9994           0
      2479 MEMB     23       SAPS     O12      OSLP    -0.570000       15.9994           0
      2480 MEMB     23       SAPS     O11      OSLP    -0.570000       15.9994           0
      2481 MEMB     23       SAPS     C1       CTL2    -0.800000E-01   12.0110           0
      2482 MEMB     23       SAPS     HA       HAL2     0.900000E-01   1.00800           0
      2483 MEMB     23       SAPS     HB       HAL2     0.900000E-01   1.00800           0
      2484 MEMB     23       SAPS     C2       CTL1     0.170000       12.0110           0
      2485 MEMB     23       SAPS     HS       HAL1     0.900000E-01   1.00800           0
      2486 MEMB     23       SAPS     O21      OSL     -0.490000       15.9994           0
      2487 MEMB     23       SAPS     C21      CL       0.900000       12.0110           0
      2488 MEMB     23       SAPS     O22      OBL     -0.630000       15.9994           0
      2489 MEMB     23       SAPS     C22      CTL2    -0.220000       12.0110           0
      2490 MEMB     23       SAPS     H2R      HAL2     0.900000E-01   1.00800           0
      2491 MEMB     23       SAPS     H2S      HAL2     0.900000E-01   1.00800           0
      2492 MEMB     23       SAPS     C3       CTL2     0.800000E-01   12.0110           0
      2493 MEMB     23       SAPS     HX       HAL2     0.900000E-01   1.00800           0
      2494 MEMB     23       SAPS     HY       HAL2     0.900000E-01   1.00800           0
      2495 MEMB     23       SAPS     O31      OSL     -0.490000       15.9994           0
      2496 MEMB     23       SAPS     C31      CL       0.900000       12.0110           0
      2497 MEMB     23       SAPS     O32      OBL     -0.630000       15.9994           0
      2498 MEMB     23       SAPS     C32      CTL2    -0.220000       12.0110           0
      2499 MEMB     23       SAPS     H2X      HAL2     0.900000E-01   1.00800           0
      2500 MEMB     23       SAPS     H2Y      HAL2     0.900000E-01   1.00800           0
      2501 MEMB     23       SAPS     C23      CTL2    -0.180000       12.0110           0
      2502 MEMB     23       SAPS     H3R      HAL2     0.900000E-01   1.00800           0
      2503 MEMB     23       SAPS     H3S      HAL2     0.900000E-01   1.00800           0
      2504 MEMB     23       SAPS     C24      CTL2    -0.180000       12.0110           0
      2505 MEMB     23       SAPS     H4R      HAL2     0.900000E-01   1.00800           0
      2506 MEMB     23       SAPS     H4S      HAL2     0.900000E-01   1.00800           0
      2507 MEMB     23       SAPS     C25      CEL1    -0.150000       12.0110           0
      2508 MEMB     23       SAPS     H5R      HEL1     0.150000       1.00800           0
      2509 MEMB     23       SAPS     C26      CEL1    -0.150000       12.0110           0
      2510 MEMB     23       SAPS     H6R      HEL1     0.150000       1.00800           0
      2511 MEMB     23       SAPS     C27      CTL2    -0.180000       12.0110           0
      2512 MEMB     23       SAPS     H7R      HAL2     0.900000E-01   1.00800           0
      2513 MEMB     23       SAPS     H7S      HAL2     0.900000E-01   1.00800           0
      2514 MEMB     23       SAPS     C28      CEL1    -0.150000       12.0110           0
      2515 MEMB     23       SAPS     H8R      HEL1     0.150000       1.00800           0
      2516 MEMB     23       SAPS     C29      CEL1    -0.150000       12.0110           0
      2517 MEMB     23       SAPS     H9R      HEL1     0.150000       1.00800           0
      2518 MEMB     23       SAPS     C210     CTL2    -0.180000       12.0110           0
      2519 MEMB     23       SAPS     H10R     HAL2     0.900000E-01   1.00800           0
      2520 MEMB     23       SAPS     H10S     HAL2     0.900000E-01   1.00800           0
      2521 MEMB     23       SAPS     C211     CEL1    -0.150000       12.0110           0
      2522 MEMB     23       SAPS     H11R     HEL1     0.150000       1.00800           0
      2523 MEMB     23       SAPS     C212     CEL1    -0.150000       12.0110           0
      2524 MEMB     23       SAPS     H12R     HEL1     0.150000       1.00800           0
      2525 MEMB     23       SAPS     C213     CTL2    -0.180000       12.0110           0
      2526 MEMB     23       SAPS     H13R     HAL2     0.900000E-01   1.00800           0
      2527 MEMB     23       SAPS     H13S     HAL2     0.900000E-01   1.00800           0
      2528 MEMB     23       SAPS     C214     CEL1    -0.150000       12.0110           0
      2529 MEMB     23       SAPS     H14R     HEL1     0.150000       1.00800           0
      2530 MEMB     23       SAPS     C215     CEL1    -0.150000       12.0110           0
      2531 MEMB     23       SAPS     H15R     HEL1     0.150000       1.00800           0
      2532 MEMB     23       SAPS     C216     CTL2    -0.180000       12.0110           0
      2533 MEMB     23       SAPS     H16R     HAL2     0.900000E-01   1.00800           0
      2534 MEMB     23       SAPS     H16S     HAL2     0.900000E-01   1.00800           0
      2535 MEMB     23       SAPS     C217     CTL2    -0.180000       12.0110           0
      2536 MEMB     23       SAPS     H17R     HAL2     0.900000E-01   1.00800           0
      2537 MEMB     23       SAPS     H17S     HAL2     0.900000E-01   1.00800           0
      2538 MEMB     23       SAPS     C218     CTL2    -0.180000       12.0110           0
      2539 MEMB     23       SAPS     H18R     HAL2     0.900000E-01   1.00800           0
      2540 MEMB     23       SAPS     H18S     HAL2     0.900000E-01   1.00800           0
      2541 MEMB     23       SAPS     C219     CTL2    -0.180000       12.0110           0
      2542 MEMB     23       SAPS     H19R     HAL2     0.900000E-01   1.00800           0
      2543 MEMB     23       SAPS     H19S     HAL2     0.900000E-01   1.00800           0
      2544 MEMB     23       SAPS     C220     CTL3    -0.270000       12.0110           0
      2545 MEMB     23       SAPS     H20R     HAL3     0.900000E-01   1.00800           0
      2546 MEMB     23       SAPS     H20S     HAL3     0.900000E-01   1.00800           0
      2547 MEMB     23       SAPS     H20T     HAL3     0.900000E-01   1.00800           0
      2548 MEMB     23       SAPS     C33      CTL2    -0.180000       12.0110           0
      2549 MEMB     23       SAPS     H3X      HAL2     0.900000E-01   1.00800           0
      2550 MEMB     23       SAPS     H3Y      HAL2     0.900000E-01   1.00800           0
      2551 MEMB     23       SAPS     C34      CTL2    -0.180000       12.0110           0
      2552 MEMB     23       SAPS     H4X      HAL2     0.900000E-01   1.00800           0
      2553 MEMB     23       SAPS     H4Y      HAL2     0.900000E-01   1.00800           0
      2554 MEMB     23       SAPS     C35      CTL2    -0.180000       12.0110           0
      2555 MEMB     23       SAPS     H5X      HAL2     0.900000E-01   1.00800           0
      2556 MEMB     23       SAPS     H5Y      HAL2     0.900000E-01   1.00800           0
      2557 MEMB     23       SAPS     C36      CTL2    -0.180000       12.0110           0
      2558 MEMB     23       SAPS     H6X      HAL2     0.900000E-01   1.00800           0
      2559 MEMB     23       SAPS     H6Y      HAL2     0.900000E-01   1.00800           0
      2560 MEMB     23       SAPS     C37      CTL2    -0.180000       12.0110           0
      2561 MEMB     23       SAPS     H7X      HAL2     0.900000E-01   1.00800           0
      2562 MEMB     23       SAPS     H7Y      HAL2     0.900000E-01   1.00800           0
      2563 MEMB     23       SAPS     C38      CTL2    -0.180000       12.0110           0
      2564 MEMB     23       SAPS     H8X      HAL2     0.900000E-01   1.00800           0
      2565 MEMB     23       SAPS     H8Y      HAL2     0.900000E-01   1.00800           0
      2566 MEMB     23       SAPS     C39      CTL2    -0.180000       12.0110           0
      2567 MEMB     23       SAPS     H9X      HAL2     0.900000E-01   1.00800           0
      2568 MEMB     23       SAPS     H9Y      HAL2     0.900000E-01   1.00800           0
      2569 MEMB     23       SAPS     C310     CTL2    -0.180000       12.0110           0
      2570 MEMB     23       SAPS     H10X     HAL2     0.900000E-01   1.00800           0
      2571 MEMB     23       SAPS     H10Y     HAL2     0.900000E-01   1.00800           0
      2572 MEMB     23       SAPS     C311     CTL2    -0.180000       12.0110           0
      2573 MEMB     23       SAPS     H11X     HAL2     0.900000E-01   1.00800           0
      2574 MEMB     23       SAPS     H11Y     HAL2     0.900000E-01   1.00800           0
      2575 MEMB     23       SAPS     C312     CTL2    -0.180000       12.0110           0
      2576 MEMB     23       SAPS     H12X     HAL2     0.900000E-01   1.00800           0
      2577 MEMB     23       SAPS     H12Y     HAL2     0.900000E-01   1.00800           0
      2578 MEMB     23       SAPS     C313     CTL2    -0.180000       12.0110           0
      2579 MEMB     23       SAPS     H13X     HAL2     0.900000E-01   1.00800           0
      2580 MEMB     23       SAPS     H13Y     HAL2     0.900000E-01   1.00800           0
      2581 MEMB     23       SAPS     C314     CTL2    -0.180000       12.0110           0
      2582 MEMB     23       SAPS     H14X     HAL2     0.900000E-01   1.00800           0
      2583 MEMB     23       SAPS     H14Y     HAL2     0.900000E-01   1.00800           0
      2584 MEMB     23       SAPS     C315     CTL2    -0.180000       12.0110           0
      2585 MEMB     23       SAPS     H15X     HAL2     0.900000E-01   1.00800           0
      2586 MEMB     23       SAPS     H15Y     HAL2     0.900000E-01   1.00800           0
      2587 MEMB     23       SAPS     C316     CTL2    -0.180000       12.0110           0
      2588 MEMB     23       SAPS     H16X     HAL2     0.900000E-01   1.00800           0
      2589 MEMB     23       SAPS     H16Y     HAL2     0.900000E-01   1.00800           0
      2590 MEMB     23       SAPS     C317     CTL2    -0.180000       12.0110           0
      2591 MEMB     23       SAPS     H17X     HAL2     0.900000E-01   1.00800           0
      2592 MEMB     23       SAPS     H17Y     HAL2     0.900000E-01   1.00800           0
      2593 MEMB     23       SAPS     C318     CTL3    -0.270000       12.0110           0
      2594 MEMB     23       SAPS     H18X     HAL3     0.900000E-01   1.00800           0
      2595 MEMB     23       SAPS     H18Y     HAL3     0.900000E-01   1.00800           0
      2596 MEMB     23       SAPS     H18Z     HAL3     0.900000E-01   1.00800           0
      2597 MEMB     24       OSM      N        NTL     -0.600000       14.0070           0
      2598 MEMB     24       OSM      C15      CTL5    -0.350000       12.0110           0
      2599 MEMB     24       OSM      H15A     HL       0.250000       1.00800           0
      2600 MEMB     24       OSM      H15B     HL       0.250000       1.00800           0
      2601 MEMB     24       OSM      H15C     HL       0.250000       1.00800           0
      2602 MEMB     24       OSM      C14      CTL5    -0.350000       12.0110           0
      2603 MEMB     24       OSM      H14A     HL       0.250000       1.00800           0
      2604 MEMB     24       OSM      H14B     HL       0.250000       1.00800           0
      2605 MEMB     24       OSM      H14C     HL       0.250000       1.00800           0
      2606 MEMB     24       OSM      C13      CTL5    -0.350000       12.0110           0
      2607 MEMB     24       OSM      H13A     HL       0.250000       1.00800           0
      2608 MEMB     24       OSM      H13B     HL       0.250000       1.00800           0
      2609 MEMB     24       OSM      H13C     HL       0.250000       1.00800           0
      2610 MEMB     24       OSM      C12      CTL2    -0.100000       12.0110           0
      2611 MEMB     24       OSM      H12A     HL       0.250000       1.00800           0
      2612 MEMB     24       OSM      H12B     HL       0.250000       1.00800           0
      2613 MEMB     24       OSM      C11      CTL2    -0.800000E-01   12.0110           0
      2614 MEMB     24       OSM      H11A     HAL2     0.900000E-01   1.00800           0
      2615 MEMB     24       OSM      H11B     HAL2     0.900000E-01   1.00800           0
      2616 MEMB     24       OSM      P        PL        1.50000       30.9740           0
      2617 MEMB     24       OSM      O13      O2L     -0.780000       15.9994           0
      2618 MEMB     24       OSM      O14      O2L     -0.780000       15.9994           0
      2619 MEMB     24       OSM      O11      OSLP    -0.570000       15.9994           0
      2620 MEMB     24       OSM      O12      OSLP    -0.570000       15.9994           0
      2621 MEMB     24       OSM      C1S      CTL2    -0.800000E-01   12.0110           0
      2622 MEMB     24       OSM      H1S      HAL2     0.900000E-01   1.00800           0
      2623 MEMB     24       OSM      H1T      HAL2     0.900000E-01   1.00800           0
      2624 MEMB     24       OSM      NF       NHL     -0.700000       14.0070           0
      2625 MEMB     24       OSM      HNF      H        0.350000       1.00800           0
      2626 MEMB     24       OSM      C2S      CTL1     0.300000       12.0110           0
      2627 MEMB     24       OSM      H2S      HAL1     0.500000E-01   1.00800           0
      2628 MEMB     24       OSM      C3S      CTO1     0.500000       12.0110           0
      2629 MEMB     24       OSM      H3S      HAL1    -0.110000       1.00800           0
      2630 MEMB     24       OSM      O3       OHL     -0.690000       15.9994           0
      2631 MEMB     24       OSM      HO3      HOL      0.300000       1.00800           0
      2632 MEMB     24       OSM      C4S      CEL3    -0.150000       12.0110           0
      2633 MEMB     24       OSM      H4S      HEL1     0.150000       1.00800           0
      2634 MEMB     24       OSM      C5S      CEL3    -0.150000       12.0110           0
      2635 MEMB     24       OSM      H5S      HEL1     0.150000       1.00800           0
      2636 MEMB     24       OSM      C6S      CTL2    -0.180000       12.0110           0
      2637 MEMB     24       OSM      H6S      HAL2     0.900000E-01   1.00800           0
      2638 MEMB     24       OSM      H6T      HAL2     0.900000E-01   1.00800           0
      2639 MEMB     24       OSM      C7S      CTL2    -0.180000       12.0110           0
      2640 MEMB     24       OSM      H7S      HAL2     0.900000E-01   1.00800           0
      2641 MEMB     24       OSM      H7T      HAL2     0.900000E-01   1.00800           0
      2642 MEMB     24       OSM      C8S      CTL2    -0.180000       12.0110           0
      2643 MEMB     24       OSM      H8S      HAL2     0.900000E-01   1.00800           0
      2644 MEMB     24       OSM      H8T      HAL2     0.900000E-01   1.00800           0
      2645 MEMB     24       OSM      C9S      CTL2    -0.180000       12.0110           0
      2646 MEMB     24       OSM      H9S      HAL2     0.900000E-01   1.00800           0
      2647 MEMB     24       OSM      H9T      HAL2     0.900000E-01   1.00800           0
      2648 MEMB     24       OSM      C10S     CTL2    -0.180000       12.0110           0
      2649 MEMB     24       OSM      H10S     HAL2     0.900000E-01   1.00800           0
      2650 MEMB     24       OSM      H10T     HAL2     0.900000E-01   1.00800           0
      2651 MEMB     24       OSM      C11S     CTL2    -0.180000       12.0110           0
      2652 MEMB     24       OSM      H11S     HAL2     0.900000E-01   1.00800           0
      2653 MEMB     24       OSM      H11T     HAL2     0.900000E-01   1.00800           0
      2654 MEMB     24       OSM      C12S     CTL2    -0.180000       12.0110           0
      2655 MEMB     24       OSM      H12S     HAL2     0.900000E-01   1.00800           0
      2656 MEMB     24       OSM      H12T     HAL2     0.900000E-01   1.00800           0
      2657 MEMB     24       OSM      C13S     CTL2    -0.180000       12.0110           0
      2658 MEMB     24       OSM      H13S     HAL2     0.900000E-01   1.00800           0
      2659 MEMB     24       OSM      H13T     HAL2     0.900000E-01   1.00800           0
      2660 MEMB     24       OSM      C14S     CTL2    -0.180000       12.0110           0
      2661 MEMB     24       OSM      H14S     HAL2     0.900000E-01   1.00800           0
      2662 MEMB     24       OSM      H14T     HAL2     0.900000E-01   1.00800           0
      2663 MEMB     24       OSM      C15S     CTL2    -0.180000       12.0110           0
      2664 MEMB     24       OSM      H15S     HAL2     0.900000E-01   1.00800           0
      2665 MEMB     24       OSM      H15T     HAL2     0.900000E-01   1.00800           0
      2666 MEMB     24       OSM      C16S     CTL2    -0.180000       12.0110           0
      2667 MEMB     24       OSM      H16S     HAL2     0.900000E-01   1.00800           0
      2668 MEMB     24       OSM      H16T     HAL2     0.900000E-01   1.00800           0
      2669 MEMB     24       OSM      C17S     CTL2    -0.180000       12.0110           0
      2670 MEMB     24       OSM      H17S     HAL2     0.900000E-01   1.00800           0
      2671 MEMB     24       OSM      H17T     HAL2     0.900000E-01   1.00800           0
      2672 MEMB     24       OSM      C18S     CTL3    -0.270000       12.0110           0
      2673 MEMB     24       OSM      H18S     HAL3     0.900000E-01   1.00800           0
      2674 MEMB     24       OSM      H18T     HAL3     0.900000E-01   1.00800           0
      2675 MEMB     24       OSM      H18U     HAL3     0.900000E-01   1.00800           0
      2676 MEMB     24       OSM      C1F      C        0.550000       12.0110           0
      2677 MEMB     24       OSM      OF       O       -0.600000       15.9994           0
      2678 MEMB     24       OSM      C2F      CTL2    -0.700000E-01   12.0110           0
      2679 MEMB     24       OSM      H2F      HAL2     0.600000E-01   1.00800           0
      2680 MEMB     24       OSM      H2G      HAL2     0.600000E-01   1.00800           0
      2681 MEMB     24       OSM      C3F      CTL2    -0.180000       12.0110           0
      2682 MEMB     24       OSM      H3F      HAL2     0.900000E-01   1.00800           0
      2683 MEMB     24       OSM      H3G      HAL2     0.900000E-01   1.00800           0
      2684 MEMB     24       OSM      C4F      CTL2    -0.180000       12.0110           0
      2685 MEMB     24       OSM      H4F      HAL2     0.900000E-01   1.00800           0
      2686 MEMB     24       OSM      H4G      HAL2     0.900000E-01   1.00800           0
      2687 MEMB     24       OSM      C5F      CTL2    -0.180000       12.0110           0
      2688 MEMB     24       OSM      H5F      HAL2     0.900000E-01   1.00800           0
      2689 MEMB     24       OSM      H5G      HAL2     0.900000E-01   1.00800           0
      2690 MEMB     24       OSM      C6F      CTL2    -0.180000       12.0110           0
      2691 MEMB     24       OSM      H6F      HAL2     0.900000E-01   1.00800           0
      2692 MEMB     24       OSM      H6G      HAL2     0.900000E-01   1.00800           0
      2693 MEMB     24       OSM      C7F      CTL2    -0.180000       12.0110           0
      2694 MEMB     24       OSM      H7F      HAL2     0.900000E-01   1.00800           0
      2695 MEMB     24       OSM      H7G      HAL2     0.900000E-01   1.00800           0
      2696 MEMB     24       OSM      C8F      CTL2    -0.180000       12.0110           0
      2697 MEMB     24       OSM      H8F      HAL2     0.900000E-01   1.00800           0
      2698 MEMB     24       OSM      H8G      HAL2     0.900000E-01   1.00800           0
      2699 MEMB     24       OSM      C9F      CEL1    -0.150000       12.0110           0
      2700 MEMB     24       OSM      H9F      HEL1     0.150000       1.00800           0
      2701 MEMB     24       OSM      C10F     CEL1    -0.150000       12.0110           0
      2702 MEMB     24       OSM      H10F     HEL1     0.150000       1.00800           0
      2703 MEMB     24       OSM      C11F     CTL2    -0.180000       12.0110           0
      2704 MEMB     24       OSM      H11F     HAL2     0.900000E-01   1.00800           0
      2705 MEMB     24       OSM      H11G     HAL2     0.900000E-01   1.00800           0
      2706 MEMB     24       OSM      C12F     CTL2    -0.180000       12.0110           0
      2707 MEMB     24       OSM      H12F     HAL2     0.900000E-01   1.00800           0
      2708 MEMB     24       OSM      H12G     HAL2     0.900000E-01   1.00800           0
      2709 MEMB     24       OSM      C13F     CTL2    -0.180000       12.0110           0
      2710 MEMB     24       OSM      H13F     HAL2     0.900000E-01   1.00800           0
      2711 MEMB     24       OSM      H13G     HAL2     0.900000E-01   1.00800           0
      2712 MEMB     24       OSM      C14F     CTL2    -0.180000       12.0110           0
      2713 MEMB     24       OSM      H14F     HAL2     0.900000E-01   1.00800           0
      2714 MEMB     24       OSM      H14G     HAL2     0.900000E-01   1.00800           0
      2715 MEMB     24       OSM      C15F     CTL2    -0.180000       12.0110           0
      2716 MEMB     24       OSM      H15F     HAL2     0.900000E-01   1.00800           0
      2717 MEMB     24       OSM      H15G     HAL2     0.900000E-01   1.00800           0
      2718 MEMB     24       OSM      C16F     CTL2    -0.180000       12.0110           0
      2719 MEMB     24       OSM      H16F     HAL2     0.900000E-01   1.00800           0
      2720 MEMB     24       OSM      H16G     HAL2     0.900000E-01   1.00800           0
      2721 MEMB     24       OSM      C17F     CTL2    -0.180000       12.0110           0
      2722 MEMB     24       OSM      H17F     HAL2     0.900000E-01   1.00800           0
      2723 MEMB     24       OSM      H17G     HAL2     0.900000E-01   1.00800           0
      2724 MEMB     24       OSM      C18F     CTL3    -0.270000       12.0110           0
      2725 MEMB     24       OSM      H18F     HAL3     0.900000E-01   1.00800           0
      2726 MEMB     24       OSM      H18G     HAL3     0.900000E-01   1.00800           0
      2727 MEMB     24       OSM      H18H     HAL3     0.900000E-01   1.00800           0
      2728 MEMB     25       SAPE     N        NH3L    -0.300000       14.0070           0
      2729 MEMB     25       SAPE     HN1      HCL      0.330000       1.00800           0
      2730 MEMB     25       SAPE     HN2      HCL      0.330000       1.00800           0
      2731 MEMB     25       SAPE     HN3      HCL      0.330000       1.00800           0
      2732 MEMB     25       SAPE     C12      CTL2     0.130000       12.0110           0
      2733 MEMB     25       SAPE     H12A     HAL2     0.900000E-01   1.00800           0
      2734 MEMB     25       SAPE     H12B     HAL2     0.900000E-01   1.00800           0
      2735 MEMB     25       SAPE     C11      CTL2    -0.800000E-01   12.0110           0
      2736 MEMB     25       SAPE     H11A     HAL2     0.900000E-01   1.00800           0
      2737 MEMB     25       SAPE     H11B     HAL2     0.900000E-01   1.00800           0
      2738 MEMB     25       SAPE     P        PL        1.50000       30.9740           0
      2739 MEMB     25       SAPE     O13      O2L     -0.780000       15.9994           0
      2740 MEMB     25       SAPE     O14      O2L     -0.780000       15.9994           0
      2741 MEMB     25       SAPE     O12      OSLP    -0.570000       15.9994           0
      2742 MEMB     25       SAPE     O11      OSLP    -0.570000       15.9994           0
      2743 MEMB     25       SAPE     C1       CTL2    -0.800000E-01   12.0110           0
      2744 MEMB     25       SAPE     HA       HAL2     0.900000E-01   1.00800           0
      2745 MEMB     25       SAPE     HB       HAL2     0.900000E-01   1.00800           0
      2746 MEMB     25       SAPE     C2       CTL1     0.170000       12.0110           0
      2747 MEMB     25       SAPE     HS       HAL1     0.900000E-01   1.00800           0
      2748 MEMB     25       SAPE     O21      OSL     -0.490000       15.9994           0
      2749 MEMB     25       SAPE     C21      CL       0.900000       12.0110           0
      2750 MEMB     25       SAPE     O22      OBL     -0.630000       15.9994           0
      2751 MEMB     25       SAPE     C22      CTL2    -0.220000       12.0110           0
      2752 MEMB     25       SAPE     H2R      HAL2     0.900000E-01   1.00800           0
      2753 MEMB     25       SAPE     H2S      HAL2     0.900000E-01   1.00800           0
      2754 MEMB     25       SAPE     C3       CTL2     0.800000E-01   12.0110           0
      2755 MEMB     25       SAPE     HX       HAL2     0.900000E-01   1.00800           0
      2756 MEMB     25       SAPE     HY       HAL2     0.900000E-01   1.00800           0
      2757 MEMB     25       SAPE     O31      OSL     -0.490000       15.9994           0
      2758 MEMB     25       SAPE     C31      CL       0.900000       12.0110           0
      2759 MEMB     25       SAPE     O32      OBL     -0.630000       15.9994           0
      2760 MEMB     25       SAPE     C32      CTL2    -0.220000       12.0110           0
      2761 MEMB     25       SAPE     H2X      HAL2     0.900000E-01   1.00800           0
      2762 MEMB     25       SAPE     H2Y      HAL2     0.900000E-01   1.00800           0
      2763 MEMB     25       SAPE     C23      CTL2    -0.180000       12.0110           0
      2764 MEMB     25       SAPE     H3R      HAL2     0.900000E-01   1.00800           0
      2765 MEMB     25       SAPE     H3S      HAL2     0.900000E-01   1.00800           0
      2766 MEMB     25       SAPE     C24      CTL2    -0.180000       12.0110           0
      2767 MEMB     25       SAPE     H4R      HAL2     0.900000E-01   1.00800           0
      2768 MEMB     25       SAPE     H4S      HAL2     0.900000E-01   1.00800           0
      2769 MEMB     25       SAPE     C25      CEL1    -0.150000       12.0110           0
      2770 MEMB     25       SAPE     H5R      HEL1     0.150000       1.00800           0
      2771 MEMB     25       SAPE     C26      CEL1    -0.150000       12.0110           0
      2772 MEMB     25       SAPE     H6R      HEL1     0.150000       1.00800           0
      2773 MEMB     25       SAPE     C27      CTL2    -0.180000       12.0110           0
      2774 MEMB     25       SAPE     H7R      HAL2     0.900000E-01   1.00800           0
      2775 MEMB     25       SAPE     H7S      HAL2     0.900000E-01   1.00800           0
      2776 MEMB     25       SAPE     C28      CEL1    -0.150000       12.0110           0
      2777 MEMB     25       SAPE     H8R      HEL1     0.150000       1.00800           0
      2778 MEMB     25       SAPE     C29      CEL1    -0.150000       12.0110           0
      2779 MEMB     25       SAPE     H9R      HEL1     0.150000       1.00800           0
      2780 MEMB     25       SAPE     C210     CTL2    -0.180000       12.0110           0
      2781 MEMB     25       SAPE     H10R     HAL2     0.900000E-01   1.00800           0
      2782 MEMB     25       SAPE     H10S     HAL2     0.900000E-01   1.00800           0
      2783 MEMB     25       SAPE     C211     CEL1    -0.150000       12.0110           0
      2784 MEMB     25       SAPE     H11R     HEL1     0.150000       1.00800           0
      2785 MEMB     25       SAPE     C212     CEL1    -0.150000       12.0110           0
      2786 MEMB     25       SAPE     H12R     HEL1     0.150000       1.00800           0
      2787 MEMB     25       SAPE     C213     CTL2    -0.180000       12.0110           0
      2788 MEMB     25       SAPE     H13R     HAL2     0.900000E-01   1.00800           0
      2789 MEMB     25       SAPE     H13S     HAL2     0.900000E-01   1.00800           0
      2790 MEMB     25       SAPE     C214     CEL1    -0.150000       12.0110           0
      2791 MEMB     25       SAPE     H14R     HEL1     0.150000       1.00800           0
      2792 MEMB     25       SAPE     C215     CEL1    -0.150000       12.0110           0
      2793 MEMB     25       SAPE     H15R     HEL1     0.150000       1.00800           0
      2794 MEMB     25       SAPE     C216     CTL2    -0.180000       12.0110           0
      2795 MEMB     25       SAPE     H16R     HAL2     0.900000E-01   1.00800           0
      2796 MEMB     25       SAPE     H16S     HAL2     0.900000E-01   1.00800           0
      2797 MEMB     25       SAPE     C217     CTL2    -0.180000       12.0110           0
      2798 MEMB     25       SAPE     H17R     HAL2     0.900000E-01   1.00800           0
      2799 MEMB     25       SAPE     H17S     HAL2     0.900000E-01   1.00800           0
      2800 MEMB     25       SAPE     C218     CTL2    -0.180000       12.0110           0
      2801 MEMB     25       SAPE     H18R     HAL2     0.900000E-01   1.00800           0
      2802 MEMB     25       SAPE     H18S     HAL2     0.900000E-01   1.00800           0
      2803 MEMB     25       SAPE     C219     CTL2    -0.180000       12.0110           0
      2804 MEMB     25       SAPE     H19R     HAL2     0.900000E-01   1.00800           0
      2805 MEMB     25       SAPE     H19S     HAL2     0.900000E-01   1.00800           0
      2806 MEMB     25       SAPE     C220     CTL3    -0.270000       12.0110           0
      2807 MEMB     25       SAPE     H20R     HAL3     0.900000E-01   1.00800           0
      2808 MEMB     25       SAPE     H20S     HAL3     0.900000E-01   1.00800           0
      2809 MEMB     25       SAPE     H20T     HAL3     0.900000E-01   1.00800           0
      2810 MEMB     25       SAPE     C33      CTL2    -0.180000       12.0110           0
      2811 MEMB     25       SAPE     H3X      HAL2     0.900000E-01   1.00800           0
      2812 MEMB     25       SAPE     H3Y      HAL2     0.900000E-01   1.00800           0
      2813 MEMB     25       SAPE     C34      CTL2    -0.180000       12.0110           0
      2814 MEMB     25       SAPE     H4X      HAL2     0.900000E-01   1.00800           0
      2815 MEMB     25       SAPE     H4Y      HAL2     0.900000E-01   1.00800           0
      2816 MEMB     25       SAPE     C35      CTL2    -0.180000       12.0110           0
      2817 MEMB     25       SAPE     H5X      HAL2     0.900000E-01   1.00800           0
      2818 MEMB     25       SAPE     H5Y      HAL2     0.900000E-01   1.00800           0
      2819 MEMB     25       SAPE     C36      CTL2    -0.180000       12.0110           0
      2820 MEMB     25       SAPE     H6X      HAL2     0.900000E-01   1.00800           0
      2821 MEMB     25       SAPE     H6Y      HAL2     0.900000E-01   1.00800           0
      2822 MEMB     25       SAPE     C37      CTL2    -0.180000       12.0110           0
      2823 MEMB     25       SAPE     H7X      HAL2     0.900000E-01   1.00800           0
      2824 MEMB     25       SAPE     H7Y      HAL2     0.900000E-01   1.00800           0
      2825 MEMB     25       SAPE     C38      CTL2    -0.180000       12.0110           0
      2826 MEMB     25       SAPE     H8X      HAL2     0.900000E-01   1.00800           0
      2827 MEMB     25       SAPE     H8Y      HAL2     0.900000E-01   1.00800           0
      2828 MEMB     25       SAPE     C39      CTL2    -0.180000       12.0110           0
      2829 MEMB     25       SAPE     H9X      HAL2     0.900000E-01   1.00800           0
      2830 MEMB     25       SAPE     H9Y      HAL2     0.900000E-01   1.00800           0
      2831 MEMB     25       SAPE     C310     CTL2    -0.180000       12.0110           0
      2832 MEMB     25       SAPE     H10X     HAL2     0.900000E-01   1.00800           0
      2833 MEMB     25       SAPE     H10Y     HAL2     0.900000E-01   1.00800           0
      2834 MEMB     25       SAPE     C311     CTL2    -0.180000       12.0110           0
      2835 MEMB     25       SAPE     H11X     HAL2     0.900000E-01   1.00800           0
      2836 MEMB     25       SAPE     H11Y     HAL2     0.900000E-01   1.00800           0
      2837 MEMB     25       SAPE     C312     CTL2    -0.180000       12.0110           0
      2838 MEMB     25       SAPE     H12X     HAL2     0.900000E-01   1.00800           0
      2839 MEMB     25       SAPE     H12Y     HAL2     0.900000E-01   1.00800           0
      2840 MEMB     25       SAPE     C313     CTL2    -0.180000       12.0110           0
      2841 MEMB     25       SAPE     H13X     HAL2     0.900000E-01   1.00800           0
      2842 MEMB     25       SAPE     H13Y     HAL2     0.900000E-01   1.00800           0
      2843 MEMB     25       SAPE     C314     CTL2    -0.180000       12.0110           0
      2844 MEMB     25       SAPE     H14X     HAL2     0.900000E-01   1.00800           0
      2845 MEMB     25       SAPE     H14Y     HAL2     0.900000E-01   1.00800           0
      2846 MEMB     25       SAPE     C315     CTL2    -0.180000       12.0110           0
      2847 MEMB     25       SAPE     H15X     HAL2     0.900000E-01   1.00800           0
      2848 MEMB     25       SAPE     H15Y     HAL2     0.900000E-01   1.00800           0
      2849 MEMB     25       SAPE     C316     CTL2    -0.180000       12.0110           0
      2850 MEMB     25       SAPE     H16X     HAL2     0.900000E-01   1.00800           0
      2851 MEMB     25       SAPE     H16Y     HAL2     0.900000E-01   1.00800           0
      2852 MEMB     25       SAPE     C317     CTL2    -0.180000       12.0110           0
      2853 MEMB     25       SAPE     H17X     HAL2     0.900000E-01   1.00800           0
      2854 MEMB     25       SAPE     H17Y     HAL2     0.900000E-01   1.00800           0
      2855 MEMB     25       SAPE     C318     CTL3    -0.270000       12.0110           0
      2856 MEMB     25       SAPE     H18X     HAL3     0.900000E-01   1.00800           0
      2857 MEMB     25       SAPE     H18Y     HAL3     0.900000E-01   1.00800           0
      2858 MEMB     25       SAPE     H18Z     HAL3     0.900000E-01   1.00800           0
      2859 MEMB     26       SOPE     N        NH3L    -0.300000       14.0070           0
      2860 MEMB     26       SOPE     HN1      HCL      0.330000       1.00800           0
      2861 MEMB     26       SOPE     HN2      HCL      0.330000       1.00800           0
      2862 MEMB     26       SOPE     HN3      HCL      0.330000       1.00800           0
      2863 MEMB     26       SOPE     C12      CTL2     0.130000       12.0110           0
      2864 MEMB     26       SOPE     H12A     HAL2     0.900000E-01   1.00800           0
      2865 MEMB     26       SOPE     H12B     HAL2     0.900000E-01   1.00800           0
      2866 MEMB     26       SOPE     C11      CTL2    -0.800000E-01   12.0110           0
      2867 MEMB     26       SOPE     H11A     HAL2     0.900000E-01   1.00800           0
      2868 MEMB     26       SOPE     H11B     HAL2     0.900000E-01   1.00800           0
      2869 MEMB     26       SOPE     P        PL        1.50000       30.9740           0
      2870 MEMB     26       SOPE     O13      O2L     -0.780000       15.9994           0
      2871 MEMB     26       SOPE     O14      O2L     -0.780000       15.9994           0
      2872 MEMB     26       SOPE     O12      OSLP    -0.570000       15.9994           0
      2873 MEMB     26       SOPE     O11      OSLP    -0.570000       15.9994           0
      2874 MEMB     26       SOPE     C1       CTL2    -0.800000E-01   12.0110           0
      2875 MEMB     26       SOPE     HA       HAL2     0.900000E-01   1.00800           0
      2876 MEMB     26       SOPE     HB       HAL2     0.900000E-01   1.00800           0
      2877 MEMB     26       SOPE     C2       CTL1     0.170000       12.0110           0
      2878 MEMB     26       SOPE     HS       HAL1     0.900000E-01   1.00800           0
      2879 MEMB     26       SOPE     O21      OSL     -0.490000       15.9994           0
      2880 MEMB     26       SOPE     C21      CL       0.900000       12.0110           0
      2881 MEMB     26       SOPE     O22      OBL     -0.630000       15.9994           0
      2882 MEMB     26       SOPE     C22      CTL2    -0.220000       12.0110           0
      2883 MEMB     26       SOPE     H2R      HAL2     0.900000E-01   1.00800           0
      2884 MEMB     26       SOPE     H2S      HAL2     0.900000E-01   1.00800           0
      2885 MEMB     26       SOPE     C3       CTL2     0.800000E-01   12.0110           0
      2886 MEMB     26       SOPE     HX       HAL2     0.900000E-01   1.00800           0
      2887 MEMB     26       SOPE     HY       HAL2     0.900000E-01   1.00800           0
      2888 MEMB     26       SOPE     O31      OSL     -0.490000       15.9994           0
      2889 MEMB     26       SOPE     C31      CL       0.900000       12.0110           0
      2890 MEMB     26       SOPE     O32      OBL     -0.630000       15.9994           0
      2891 MEMB     26       SOPE     C32      CTL2    -0.220000       12.0110           0
      2892 MEMB     26       SOPE     H2X      HAL2     0.900000E-01   1.00800           0
      2893 MEMB     26       SOPE     H2Y      HAL2     0.900000E-01   1.00800           0
      2894 MEMB     26       SOPE     C23      CTL2    -0.180000       12.0110           0
      2895 MEMB     26       SOPE     H3R      HAL2     0.900000E-01   1.00800           0
      2896 MEMB     26       SOPE     H3S      HAL2     0.900000E-01   1.00800           0
      2897 MEMB     26       SOPE     C24      CTL2    -0.180000       12.0110           0
      2898 MEMB     26       SOPE     H4R      HAL2     0.900000E-01   1.00800           0
      2899 MEMB     26       SOPE     H4S      HAL2     0.900000E-01   1.00800           0
      2900 MEMB     26       SOPE     C25      CTL2    -0.180000       12.0110           0
      2901 MEMB     26       SOPE     H5R      HAL2     0.900000E-01   1.00800           0
      2902 MEMB     26       SOPE     H5S      HAL2     0.900000E-01   1.00800           0
      2903 MEMB     26       SOPE     C26      CTL2    -0.180000       12.0110           0
      2904 MEMB     26       SOPE     H6R      HAL2     0.900000E-01   1.00800           0
      2905 MEMB     26       SOPE     H6S      HAL2     0.900000E-01   1.00800           0
      2906 MEMB     26       SOPE     C27      CTL2    -0.180000       12.0110           0
      2907 MEMB     26       SOPE     H7R      HAL2     0.900000E-01   1.00800           0
      2908 MEMB     26       SOPE     H7S      HAL2     0.900000E-01   1.00800           0
      2909 MEMB     26       SOPE     C28      CTL2    -0.180000       12.0110           0
      2910 MEMB     26       SOPE     H8R      HAL2     0.900000E-01   1.00800           0
      2911 MEMB     26       SOPE     H8S      HAL2     0.900000E-01   1.00800           0
      2912 MEMB     26       SOPE     C29      CEL1    -0.150000       12.0110           0
      2913 MEMB     26       SOPE     H91      HEL1     0.150000       1.00800           0
      2914 MEMB     26       SOPE     C210     CEL1    -0.150000       12.0110           0
      2915 MEMB     26       SOPE     H101     HEL1     0.150000       1.00800           0
      2916 MEMB     26       SOPE     C211     CTL2    -0.180000       12.0110           0
      2917 MEMB     26       SOPE     H11R     HAL2     0.900000E-01   1.00800           0
      2918 MEMB     26       SOPE     H11S     HAL2     0.900000E-01   1.00800           0
      2919 MEMB     26       SOPE     C212     CTL2    -0.180000       12.0110           0
      2920 MEMB     26       SOPE     H12R     HAL2     0.900000E-01   1.00800           0
      2921 MEMB     26       SOPE     H12S     HAL2     0.900000E-01   1.00800           0
      2922 MEMB     26       SOPE     C213     CTL2    -0.180000       12.0110           0
      2923 MEMB     26       SOPE     H13R     HAL2     0.900000E-01   1.00800           0
      2924 MEMB     26       SOPE     H13S     HAL2     0.900000E-01   1.00800           0
      2925 MEMB     26       SOPE     C214     CTL2    -0.180000       12.0110           0
      2926 MEMB     26       SOPE     H14R     HAL2     0.900000E-01   1.00800           0
      2927 MEMB     26       SOPE     H14S     HAL2     0.900000E-01   1.00800           0
      2928 MEMB     26       SOPE     C215     CTL2    -0.180000       12.0110           0
      2929 MEMB     26       SOPE     H15R     HAL2     0.900000E-01   1.00800           0
      2930 MEMB     26       SOPE     H15S     HAL2     0.900000E-01   1.00800           0
      2931 MEMB     26       SOPE     C216     CTL2    -0.180000       12.0110           0
      2932 MEMB     26       SOPE     H16R     HAL2     0.900000E-01   1.00800           0
      2933 MEMB     26       SOPE     H16S     HAL2     0.900000E-01   1.00800           0
      2934 MEMB     26       SOPE     C217     CTL2    -0.180000       12.0110           0
      2935 MEMB     26       SOPE     H17R     HAL2     0.900000E-01   1.00800           0
      2936 MEMB     26       SOPE     H17S     HAL2     0.900000E-01   1.00800           0
      2937 MEMB     26       SOPE     C218     CTL3    -0.270000       12.0110           0
      2938 MEMB     26       SOPE     H18R     HAL3     0.900000E-01   1.00800           0
      2939 MEMB     26       SOPE     H18S     HAL3     0.900000E-01   1.00800           0
      2940 MEMB     26       SOPE     H18T     HAL3     0.900000E-01   1.00800           0
      2941 MEMB     26       SOPE     C33      CTL2    -0.180000       12.0110           0
      2942 MEMB     26       SOPE     H3X      HAL2     0.900000E-01   1.00800           0
      2943 MEMB     26       SOPE     H3Y      HAL2     0.900000E-01   1.00800           0
      2944 MEMB     26       SOPE     C34      CTL2    -0.180000       12.0110           0
      2945 MEMB     26       SOPE     H4X      HAL2     0.900000E-01   1.00800           0
      2946 MEMB     26       SOPE     H4Y      HAL2     0.900000E-01   1.00800           0
      2947 MEMB     26       SOPE     C35      CTL2    -0.180000       12.0110           0
      2948 MEMB     26       SOPE     H5X      HAL2     0.900000E-01   1.00800           0
      2949 MEMB     26       SOPE     H5Y      HAL2     0.900000E-01   1.00800           0
      2950 MEMB     26       SOPE     C36      CTL2    -0.180000       12.0110           0
      2951 MEMB     26       SOPE     H6X      HAL2     0.900000E-01   1.00800           0
      2952 MEMB     26       SOPE     H6Y      HAL2     0.900000E-01   1.00800           0
      2953 MEMB     26       SOPE     C37      CTL2    -0.180000       12.0110           0
      2954 MEMB     26       SOPE     H7X      HAL2     0.900000E-01   1.00800           0
      2955 MEMB     26       SOPE     H7Y      HAL2     0.900000E-01   1.00800           0
      2956 MEMB     26       SOPE     C38      CTL2    -0.180000       12.0110           0
      2957 MEMB     26       SOPE     H8X      HAL2     0.900000E-01   1.00800           0
      2958 MEMB     26       SOPE     H8Y      HAL2     0.900000E-01   1.00800           0
      2959 MEMB     26       SOPE     C39      CTL2    -0.180000       12.0110           0
      2960 MEMB     26       SOPE     H9X      HAL2     0.900000E-01   1.00800           0
      2961 MEMB     26       SOPE     H9Y      HAL2     0.900000E-01   1.00800           0
      2962 MEMB     26       SOPE     C310     CTL2    -0.180000       12.0110           0
      2963 MEMB     26       SOPE     H10X     HAL2     0.900000E-01   1.00800           0
      2964 MEMB     26       SOPE     H10Y     HAL2     0.900000E-01   1.00800           0
      2965 MEMB     26       SOPE     C311     CTL2    -0.180000       12.0110           0
      2966 MEMB     26       SOPE     H11X     HAL2     0.900000E-01   1.00800           0
      2967 MEMB     26       SOPE     H11Y     HAL2     0.900000E-01   1.00800           0
      2968 MEMB     26       SOPE     C312     CTL2    -0.180000       12.0110           0
      2969 MEMB     26       SOPE     H12X     HAL2     0.900000E-01   1.00800           0
      2970 MEMB     26       SOPE     H12Y     HAL2     0.900000E-01   1.00800           0
      2971 MEMB     26       SOPE     C313     CTL2    -0.180000       12.0110           0
      2972 MEMB     26       SOPE     H13X     HAL2     0.900000E-01   1.00800           0
      2973 MEMB     26       SOPE     H13Y     HAL2     0.900000E-01   1.00800           0
      2974 MEMB     26       SOPE     C314     CTL2    -0.180000       12.0110           0
      2975 MEMB     26       SOPE     H14X     HAL2     0.900000E-01   1.00800           0
      2976 MEMB     26       SOPE     H14Y     HAL2     0.900000E-01   1.00800           0
      2977 MEMB     26       SOPE     C315     CTL2    -0.180000       12.0110           0
      2978 MEMB     26       SOPE     H15X     HAL2     0.900000E-01   1.00800           0
      2979 MEMB     26       SOPE     H15Y     HAL2     0.900000E-01   1.00800           0
      2980 MEMB     26       SOPE     C316     CTL2    -0.180000       12.0110           0
      2981 MEMB     26       SOPE     H16X     HAL2     0.900000E-01   1.00800           0
      2982 MEMB     26       SOPE     H16Y     HAL2     0.900000E-01   1.00800           0
      2983 MEMB     26       SOPE     C317     CTL2    -0.180000       12.0110           0
      2984 MEMB     26       SOPE     H17X     HAL2     0.900000E-01   1.00800           0
      2985 MEMB     26       SOPE     H17Y     HAL2     0.900000E-01   1.00800           0
      2986 MEMB     26       SOPE     C318     CTL3    -0.270000       12.0110           0
      2987 MEMB     26       SOPE     H18X     HAL3     0.900000E-01   1.00800           0
      2988 MEMB     26       SOPE     H18Y     HAL3     0.900000E-01   1.00800           0
      2989 MEMB     26       SOPE     H18Z     HAL3     0.900000E-01   1.00800           0
      2990 MEMB     27       OSM      N        NTL     -0.600000       14.0070           0
      2991 MEMB     27       OSM      C15      CTL5    -0.350000       12.0110           0
      2992 MEMB     27       OSM      H15A     HL       0.250000       1.00800           0
      2993 MEMB     27       OSM      H15B     HL       0.250000       1.00800           0
      2994 MEMB     27       OSM      H15C     HL       0.250000       1.00800           0
      2995 MEMB     27       OSM      C14      CTL5    -0.350000       12.0110           0
      2996 MEMB     27       OSM      H14A     HL       0.250000       1.00800           0
      2997 MEMB     27       OSM      H14B     HL       0.250000       1.00800           0
      2998 MEMB     27       OSM      H14C     HL       0.250000       1.00800           0
      2999 MEMB     27       OSM      C13      CTL5    -0.350000       12.0110           0
      3000 MEMB     27       OSM      H13A     HL       0.250000       1.00800           0
      3001 MEMB     27       OSM      H13B     HL       0.250000       1.00800           0
      3002 MEMB     27       OSM      H13C     HL       0.250000       1.00800           0
      3003 MEMB     27       OSM      C12      CTL2    -0.100000       12.0110           0
      3004 MEMB     27       OSM      H12A     HL       0.250000       1.00800           0
      3005 MEMB     27       OSM      H12B     HL       0.250000       1.00800           0
      3006 MEMB     27       OSM      C11      CTL2    -0.800000E-01   12.0110           0
      3007 MEMB     27       OSM      H11A     HAL2     0.900000E-01   1.00800           0
      3008 MEMB     27       OSM      H11B     HAL2     0.900000E-01   1.00800           0
      3009 MEMB     27       OSM      P        PL        1.50000       30.9740           0
      3010 MEMB     27       OSM      O13      O2L     -0.780000       15.9994           0
      3011 MEMB     27       OSM      O14      O2L     -0.780000       15.9994           0
      3012 MEMB     27       OSM      O11      OSLP    -0.570000       15.9994           0
      3013 MEMB     27       OSM      O12      OSLP    -0.570000       15.9994           0
      3014 MEMB     27       OSM      C1S      CTL2    -0.800000E-01   12.0110           0
      3015 MEMB     27       OSM      H1S      HAL2     0.900000E-01   1.00800           0
      3016 MEMB     27       OSM      H1T      HAL2     0.900000E-01   1.00800           0
      3017 MEMB     27       OSM      NF       NHL     -0.700000       14.0070           0
      3018 MEMB     27       OSM      HNF      H        0.350000       1.00800           0
      3019 MEMB     27       OSM      C2S      CTL1     0.300000       12.0110           0
      3020 MEMB     27       OSM      H2S      HAL1     0.500000E-01   1.00800           0
      3021 MEMB     27       OSM      C3S      CTO1     0.500000       12.0110           0
      3022 MEMB     27       OSM      H3S      HAL1    -0.110000       1.00800           0
      3023 MEMB     27       OSM      O3       OHL     -0.690000       15.9994           0
      3024 MEMB     27       OSM      HO3      HOL      0.300000       1.00800           0
      3025 MEMB     27       OSM      C4S      CEL3    -0.150000       12.0110           0
      3026 MEMB     27       OSM      H4S      HEL1     0.150000       1.00800           0
      3027 MEMB     27       OSM      C5S      CEL3    -0.150000       12.0110           0
      3028 MEMB     27       OSM      H5S      HEL1     0.150000       1.00800           0
      3029 MEMB     27       OSM      C6S      CTL2    -0.180000       12.0110           0
      3030 MEMB     27       OSM      H6S      HAL2     0.900000E-01   1.00800           0
      3031 MEMB     27       OSM      H6T      HAL2     0.900000E-01   1.00800           0
      3032 MEMB     27       OSM      C7S      CTL2    -0.180000       12.0110           0
      3033 MEMB     27       OSM      H7S      HAL2     0.900000E-01   1.00800           0
      3034 MEMB     27       OSM      H7T      HAL2     0.900000E-01   1.00800           0
      3035 MEMB     27       OSM      C8S      CTL2    -0.180000       12.0110           0
      3036 MEMB     27       OSM      H8S      HAL2     0.900000E-01   1.00800           0
      3037 MEMB     27       OSM      H8T      HAL2     0.900000E-01   1.00800           0
      3038 MEMB     27       OSM      C9S      CTL2    -0.180000       12.0110           0
      3039 MEMB     27       OSM      H9S      HAL2     0.900000E-01   1.00800           0
      3040 MEMB     27       OSM      H9T      HAL2     0.900000E-01   1.00800           0
      3041 MEMB     27       OSM      C10S     CTL2    -0.180000       12.0110           0
      3042 MEMB     27       OSM      H10S     HAL2     0.900000E-01   1.00800           0
      3043 MEMB     27       OSM      H10T     HAL2     0.900000E-01   1.00800           0
      3044 MEMB     27       OSM      C11S     CTL2    -0.180000       12.0110           0
      3045 MEMB     27       OSM      H11S     HAL2     0.900000E-01   1.00800           0
      3046 MEMB     27       OSM      H11T     HAL2     0.900000E-01   1.00800           0
      3047 MEMB     27       OSM      C12S     CTL2    -0.180000       12.0110           0
      3048 MEMB     27       OSM      H12S     HAL2     0.900000E-01   1.00800           0
      3049 MEMB     27       OSM      H12T     HAL2     0.900000E-01   1.00800           0
      3050 MEMB     27       OSM      C13S     CTL2    -0.180000       12.0110           0
      3051 MEMB     27       OSM      H13S     HAL2     0.900000E-01   1.00800           0
      3052 MEMB     27       OSM      H13T     HAL2     0.900000E-01   1.00800           0
      3053 MEMB     27       OSM      C14S     CTL2    -0.180000       12.0110           0
      3054 MEMB     27       OSM      H14S     HAL2     0.900000E-01   1.00800           0
      3055 MEMB     27       OSM      H14T     HAL2     0.900000E-01   1.00800           0
      3056 MEMB     27       OSM      C15S     CTL2    -0.180000       12.0110           0
      3057 MEMB     27       OSM      H15S     HAL2     0.900000E-01   1.00800           0
      3058 MEMB     27       OSM      H15T     HAL2     0.900000E-01   1.00800           0
      3059 MEMB     27       OSM      C16S     CTL2    -0.180000       12.0110           0
      3060 MEMB     27       OSM      H16S     HAL2     0.900000E-01   1.00800           0
      3061 MEMB     27       OSM      H16T     HAL2     0.900000E-01   1.00800           0
      3062 MEMB     27       OSM      C17S     CTL2    -0.180000       12.0110           0
      3063 MEMB     27       OSM      H17S     HAL2     0.900000E-01   1.00800           0
      3064 MEMB     27       OSM      H17T     HAL2     0.900000E-01   1.00800           0
      3065 MEMB     27       OSM      C18S     CTL3    -0.270000       12.0110           0
      3066 MEMB     27       OSM      H18S     HAL3     0.900000E-01   1.00800           0
      3067 MEMB     27       OSM      H18T     HAL3     0.900000E-01   1.00800           0
      3068 MEMB     27       OSM      H18U     HAL3     0.900000E-01   1.00800           0
      3069 MEMB     27       OSM      C1F      C        0.550000       12.0110           0
      3070 MEMB     27       OSM      OF       O       -0.600000       15.9994           0
      3071 MEMB     27       OSM      C2F      CTL2    -0.700000E-01   12.0110           0
      3072 MEMB     27       OSM      H2F      HAL2     0.600000E-01   1.00800           0
      3073 MEMB     27       OSM      H2G      HAL2     0.600000E-01   1.00800           0
      3074 MEMB     27       OSM      C3F      CTL2    -0.180000       12.0110           0
      3075 MEMB     27       OSM      H3F      HAL2     0.900000E-01   1.00800           0
      3076 MEMB     27       OSM      H3G      HAL2     0.900000E-01   1.00800           0
      3077 MEMB     27       OSM      C4F      CTL2    -0.180000       12.0110           0
      3078 MEMB     27       OSM      H4F      HAL2     0.900000E-01   1.00800           0
      3079 MEMB     27       OSM      H4G      HAL2     0.900000E-01   1.00800           0
      3080 MEMB     27       OSM      C5F      CTL2    -0.180000       12.0110           0
      3081 MEMB     27       OSM      H5F      HAL2     0.900000E-01   1.00800           0
      3082 MEMB     27       OSM      H5G      HAL2     0.900000E-01   1.00800           0
      3083 MEMB     27       OSM      C6F      CTL2    -0.180000       12.0110           0
      3084 MEMB     27       OSM      H6F      HAL2     0.900000E-01   1.00800           0
      3085 MEMB     27       OSM      H6G      HAL2     0.900000E-01   1.00800           0
      3086 MEMB     27       OSM      C7F      CTL2    -0.180000       12.0110           0
      3087 MEMB     27       OSM      H7F      HAL2     0.900000E-01   1.00800           0
      3088 MEMB     27       OSM      H7G      HAL2     0.900000E-01   1.00800           0
      3089 MEMB     27       OSM      C8F      CTL2    -0.180000       12.0110           0
      3090 MEMB     27       OSM      H8F      HAL2     0.900000E-01   1.00800           0
      3091 MEMB     27       OSM      H8G      HAL2     0.900000E-01   1.00800           0
      3092 MEMB     27       OSM      C9F      CEL1    -0.150000       12.0110           0
      3093 MEMB     27       OSM      H9F      HEL1     0.150000       1.00800           0
      3094 MEMB     27       OSM      C10F     CEL1    -0.150000       12.0110           0
      3095 MEMB     27       OSM      H10F     HEL1     0.150000       1.00800           0
      3096 MEMB     27       OSM      C11F     CTL2    -0.180000       12.0110           0
      3097 MEMB     27       OSM      H11F     HAL2     0.900000E-01   1.00800           0
      3098 MEMB     27       OSM      H11G     HAL2     0.900000E-01   1.00800           0
      3099 MEMB     27       OSM      C12F     CTL2    -0.180000       12.0110           0
      3100 MEMB     27       OSM      H12F     HAL2     0.900000E-01   1.00800           0
      3101 MEMB     27       OSM      H12G     HAL2     0.900000E-01   1.00800           0
      3102 MEMB     27       OSM      C13F     CTL2    -0.180000       12.0110           0
      3103 MEMB     27       OSM      H13F     HAL2     0.900000E-01   1.00800           0
      3104 MEMB     27       OSM      H13G     HAL2     0.900000E-01   1.00800           0
      3105 MEMB     27       OSM      C14F     CTL2    -0.180000       12.0110           0
      3106 MEMB     27       OSM      H14F     HAL2     0.900000E-01   1.00800           0
      3107 MEMB     27       OSM      H14G     HAL2     0.900000E-01   1.00800           0
      3108 MEMB     27       OSM      C15F     CTL2    -0.180000       12.0110           0
      3109 MEMB     27       OSM      H15F     HAL2     0.900000E-01   1.00800           0
      3110 MEMB     27       OSM      H15G     HAL2     0.900000E-01   1.00800           0
      3111 MEMB     27       OSM      C16F     CTL2    -0.180000       12.0110           0
      3112 MEMB     27       OSM      H16F     HAL2     0.900000E-01   1.00800           0
      3113 MEMB     27       OSM      H16G     HAL2     0.900000E-01   1.00800           0
      3114 MEMB     27       OSM      C17F     CTL2    -0.180000       12.0110           0
      3115 MEMB     27       OSM      H17F     HAL2     0.900000E-01   1.00800           0
      3116 MEMB     27       OSM      H17G     HAL2     0.900000E-01   1.00800           0
      3117 MEMB     27       OSM      C18F     CTL3    -0.270000       12.0110           0
      3118 MEMB     27       OSM      H18F     HAL3     0.900000E-01   1.00800           0
      3119 MEMB     27       OSM      H18G     HAL3     0.900000E-01   1.00800           0
      3120 MEMB     27       OSM      H18H     HAL3     0.900000E-01   1.00800           0
      3121 MEMB     28       OSM      N        NTL     -0.600000       14.0070           0
      3122 MEMB     28       OSM      C15      CTL5    -0.350000       12.0110           0
      3123 MEMB     28       OSM      H15A     HL       0.250000       1.00800           0
      3124 MEMB     28       OSM      H15B     HL       0.250000       1.00800           0
      3125 MEMB     28       OSM      H15C     HL       0.250000       1.00800           0
      3126 MEMB     28       OSM      C14      CTL5    -0.350000       12.0110           0
      3127 MEMB     28       OSM      H14A     HL       0.250000       1.00800           0
      3128 MEMB     28       OSM      H14B     HL       0.250000       1.00800           0
      3129 MEMB     28       OSM      H14C     HL       0.250000       1.00800           0
      3130 MEMB     28       OSM      C13      CTL5    -0.350000       12.0110           0
      3131 MEMB     28       OSM      H13A     HL       0.250000       1.00800           0
      3132 MEMB     28       OSM      H13B     HL       0.250000       1.00800           0
      3133 MEMB     28       OSM      H13C     HL       0.250000       1.00800           0
      3134 MEMB     28       OSM      C12      CTL2    -0.100000       12.0110           0
      3135 MEMB     28       OSM      H12A     HL       0.250000       1.00800           0
      3136 MEMB     28       OSM      H12B     HL       0.250000       1.00800           0
      3137 MEMB     28       OSM      C11      CTL2    -0.800000E-01   12.0110           0
      3138 MEMB     28       OSM      H11A     HAL2     0.900000E-01   1.00800           0
      3139 MEMB     28       OSM      H11B     HAL2     0.900000E-01   1.00800           0
      3140 MEMB     28       OSM      P        PL        1.50000       30.9740           0
      3141 MEMB     28       OSM      O13      O2L     -0.780000       15.9994           0
      3142 MEMB     28       OSM      O14      O2L     -0.780000       15.9994           0
      3143 MEMB     28       OSM      O11      OSLP    -0.570000       15.9994           0
      3144 MEMB     28       OSM      O12      OSLP    -0.570000       15.9994           0
      3145 MEMB     28       OSM      C1S      CTL2    -0.800000E-01   12.0110           0
      3146 MEMB     28       OSM      H1S      HAL2     0.900000E-01   1.00800           0
      3147 MEMB     28       OSM      H1T      HAL2     0.900000E-01   1.00800           0
      3148 MEMB     28       OSM      NF       NHL     -0.700000       14.0070           0
      3149 MEMB     28       OSM      HNF      H        0.350000       1.00800           0
      3150 MEMB     28       OSM      C2S      CTL1     0.300000       12.0110           0
      3151 MEMB     28       OSM      H2S      HAL1     0.500000E-01   1.00800           0
      3152 MEMB     28       OSM      C3S      CTO1     0.500000       12.0110           0
      3153 MEMB     28       OSM      H3S      HAL1    -0.110000       1.00800           0
      3154 MEMB     28       OSM      O3       OHL     -0.690000       15.9994           0
      3155 MEMB     28       OSM      HO3      HOL      0.300000       1.00800           0
      3156 MEMB     28       OSM      C4S      CEL3    -0.150000       12.0110           0
      3157 MEMB     28       OSM      H4S      HEL1     0.150000       1.00800           0
      3158 MEMB     28       OSM      C5S      CEL3    -0.150000       12.0110           0
      3159 MEMB     28       OSM      H5S      HEL1     0.150000       1.00800           0
      3160 MEMB     28       OSM      C6S      CTL2    -0.180000       12.0110           0
      3161 MEMB     28       OSM      H6S      HAL2     0.900000E-01   1.00800           0
      3162 MEMB     28       OSM      H6T      HAL2     0.900000E-01   1.00800           0
      3163 MEMB     28       OSM      C7S      CTL2    -0.180000       12.0110           0
      3164 MEMB     28       OSM      H7S      HAL2     0.900000E-01   1.00800           0
      3165 MEMB     28       OSM      H7T      HAL2     0.900000E-01   1.00800           0
      3166 MEMB     28       OSM      C8S      CTL2    -0.180000       12.0110           0
      3167 MEMB     28       OSM      H8S      HAL2     0.900000E-01   1.00800           0
      3168 MEMB     28       OSM      H8T      HAL2     0.900000E-01   1.00800           0
      3169 MEMB     28       OSM      C9S      CTL2    -0.180000       12.0110           0
      3170 MEMB     28       OSM      H9S      HAL2     0.900000E-01   1.00800           0
      3171 MEMB     28       OSM      H9T      HAL2     0.900000E-01   1.00800           0
      3172 MEMB     28       OSM      C10S     CTL2    -0.180000       12.0110           0
      3173 MEMB     28       OSM      H10S     HAL2     0.900000E-01   1.00800           0
      3174 MEMB     28       OSM      H10T     HAL2     0.900000E-01   1.00800           0
      3175 MEMB     28       OSM      C11S     CTL2    -0.180000       12.0110           0
      3176 MEMB     28       OSM      H11S     HAL2     0.900000E-01   1.00800           0
      3177 MEMB     28       OSM      H11T     HAL2     0.900000E-01   1.00800           0
      3178 MEMB     28       OSM      C12S     CTL2    -0.180000       12.0110           0
      3179 MEMB     28       OSM      H12S     HAL2     0.900000E-01   1.00800           0
      3180 MEMB     28       OSM      H12T     HAL2     0.900000E-01   1.00800           0
      3181 MEMB     28       OSM      C13S     CTL2    -0.180000       12.0110           0
      3182 MEMB     28       OSM      H13S     HAL2     0.900000E-01   1.00800           0
      3183 MEMB     28       OSM      H13T     HAL2     0.900000E-01   1.00800           0
      3184 MEMB     28       OSM      C14S     CTL2    -0.180000       12.0110           0
      3185 MEMB     28       OSM      H14S     HAL2     0.900000E-01   1.00800           0
      3186 MEMB     28       OSM      H14T     HAL2     0.900000E-01   1.00800           0
      3187 MEMB     28       OSM      C15S     CTL2    -0.180000       12.0110           0
      3188 MEMB     28       OSM      H15S     HAL2     0.900000E-01   1.00800           0
      3189 MEMB     28       OSM      H15T     HAL2     0.900000E-01   1.00800           0
      3190 MEMB     28       OSM      C16S     CTL2    -0.180000       12.0110           0
      3191 MEMB     28       OSM      H16S     HAL2     0.900000E-01   1.00800           0
      3192 MEMB     28       OSM      H16T     HAL2     0.900000E-01   1.00800           0
      3193 MEMB     28       OSM      C17S     CTL2    -0.180000       12.0110           0
      3194 MEMB     28       OSM      H17S     HAL2     0.900000E-01   1.00800           0
      3195 MEMB     28       OSM      H17T     HAL2     0.900000E-01   1.00800           0
      3196 MEMB     28       OSM      C18S     CTL3    -0.270000       12.0110           0
      3197 MEMB     28       OSM      H18S     HAL3     0.900000E-01   1.00800           0
      3198 MEMB     28       OSM      H18T     HAL3     0.900000E-01   1.00800           0
      3199 MEMB     28       OSM      H18U     HAL3     0.900000E-01   1.00800           0
      3200 MEMB     28       OSM      C1F      C        0.550000       12.0110           0
      3201 MEMB     28       OSM      OF       O       -0.600000       15.9994           0
      3202 MEMB     28       OSM      C2F      CTL2    -0.700000E-01   12.0110           0
      3203 MEMB     28       OSM      H2F      HAL2     0.600000E-01   1.00800           0
      3204 MEMB     28       OSM      H2G      HAL2     0.600000E-01   1.00800           0
      3205 MEMB     28       OSM      C3F      CTL2    -0.180000       12.0110           0
      3206 MEMB     28       OSM      H3F      HAL2     0.900000E-01   1.00800           0
      3207 MEMB     28       OSM      H3G      HAL2     0.900000E-01   1.00800           0
      3208 MEMB     28       OSM      C4F      CTL2    -0.180000       12.0110           0
      3209 MEMB     28       OSM      H4F      HAL2     0.900000E-01   1.00800           0
      3210 MEMB     28       OSM      H4G      HAL2     0.900000E-01   1.00800           0
      3211 MEMB     28       OSM      C5F      CTL2    -0.180000       12.0110           0
      3212 MEMB     28       OSM      H5F      HAL2     0.900000E-01   1.00800           0
      3213 MEMB     28       OSM      H5G      HAL2     0.900000E-01   1.00800           0
      3214 MEMB     28       OSM      C6F      CTL2    -0.180000       12.0110           0
      3215 MEMB     28       OSM      H6F      HAL2     0.900000E-01   1.00800           0
      3216 MEMB     28       OSM      H6G      HAL2     0.900000E-01   1.00800           0
      3217 MEMB     28       OSM      C7F      CTL2    -0.180000       12.0110           0
      3218 MEMB     28       OSM      H7F      HAL2     0.900000E-01   1.00800           0
      3219 MEMB     28       OSM      H7G      HAL2     0.900000E-01   1.00800           0
      3220 MEMB     28       OSM      C8F      CTL2    -0.180000       12.0110           0
      3221 MEMB     28       OSM      H8F      HAL2     0.900000E-01   1.00800           0
      3222 MEMB     28       OSM      H8G      HAL2     0.900000E-01   1.00800           0
      3223 MEMB     28       OSM      C9F      CEL1    -0.150000       12.0110           0
      3224 MEMB     28       OSM      H9F      HEL1     0.150000       1.00800           0
      3225 MEMB     28       OSM      C10F     CEL1    -0.150000       12.0110           0
      3226 MEMB     28       OSM      H10F     HEL1     0.150000       1.00800           0
      3227 MEMB     28       OSM      C11F     CTL2    -0.180000       12.0110           0
      3228 MEMB     28       OSM      H11F     HAL2     0.900000E-01   1.00800           0
      3229 MEMB     28       OSM      H11G     HAL2     0.900000E-01   1.00800           0
      3230 MEMB     28       OSM      C12F     CTL2    -0.180000       12.0110           0
      3231 MEMB     28       OSM      H12F     HAL2     0.900000E-01   1.00800           0
      3232 MEMB     28       OSM      H12G     HAL2     0.900000E-01   1.00800           0
      3233 MEMB     28       OSM      C13F     CTL2    -0.180000       12.0110           0
      3234 MEMB     28       OSM      H13F     HAL2     0.900000E-01   1.00800           0
      3235 MEMB     28       OSM      H13G     HAL2     0.900000E-01   1.00800           0
      3236 MEMB     28       OSM      C14F     CTL2    -0.180000       12.0110           0
      3237 MEMB     28       OSM      H14F     HAL2     0.900000E-01   1.00800           0
      3238 MEMB     28       OSM      H14G     HAL2     0.900000E-01   1.00800           0
      3239 MEMB     28       OSM      C15F     CTL2    -0.180000       12.0110           0
      3240 MEMB     28       OSM      H15F     HAL2     0.900000E-01   1.00800           0
      3241 MEMB     28       OSM      H15G     HAL2     0.900000E-01   1.00800           0
      3242 MEMB     28       OSM      C16F     CTL2    -0.180000       12.0110           0
      3243 MEMB     28       OSM      H16F     HAL2     0.900000E-01   1.00800           0
      3244 MEMB     28       OSM      H16G     HAL2     0.900000E-01   1.00800           0
      3245 MEMB     28       OSM      C17F     CTL2    -0.180000       12.0110           0
      3246 MEMB     28       OSM      H17F     HAL2     0.900000E-01   1.00800           0
      3247 MEMB     28       OSM      H17G     HAL2     0.900000E-01   1.00800           0
      3248 MEMB     28       OSM      C18F     CTL3    -0.270000       12.0110           0
      3249 MEMB     28       OSM      H18F     HAL3     0.900000E-01   1.00800           0
      3250 MEMB     28       OSM      H18G     HAL3     0.900000E-01   1.00800           0
      3251 MEMB     28       OSM      H18H     HAL3     0.900000E-01   1.00800           0
      3252 MEMB     29       OSM      N        NTL     -0.600000       14.0070           0
      3253 MEMB     29       OSM      C15      CTL5    -0.350000       12.0110           0
      3254 MEMB     29       OSM      H15A     HL       0.250000       1.00800           0
      3255 MEMB     29       OSM      H15B     HL       0.250000       1.00800           0
      3256 MEMB     29       OSM      H15C     HL       0.250000       1.00800           0
      3257 MEMB     29       OSM      C14      CTL5    -0.350000       12.0110           0
      3258 MEMB     29       OSM      H14A     HL       0.250000       1.00800           0
      3259 MEMB     29       OSM      H14B     HL       0.250000       1.00800           0
      3260 MEMB     29       OSM      H14C     HL       0.250000       1.00800           0
      3261 MEMB     29       OSM      C13      CTL5    -0.350000       12.0110           0
      3262 MEMB     29       OSM      H13A     HL       0.250000       1.00800           0
      3263 MEMB     29       OSM      H13B     HL       0.250000       1.00800           0
      3264 MEMB     29       OSM      H13C     HL       0.250000       1.00800           0
      3265 MEMB     29       OSM      C12      CTL2    -0.100000       12.0110           0
      3266 MEMB     29       OSM      H12A     HL       0.250000       1.00800           0
      3267 MEMB     29       OSM      H12B     HL       0.250000       1.00800           0
      3268 MEMB     29       OSM      C11      CTL2    -0.800000E-01   12.0110           0
      3269 MEMB     29       OSM      H11A     HAL2     0.900000E-01   1.00800           0
      3270 MEMB     29       OSM      H11B     HAL2     0.900000E-01   1.00800           0
      3271 MEMB     29       OSM      P        PL        1.50000       30.9740           0
      3272 MEMB     29       OSM      O13      O2L     -0.780000       15.9994           0
      3273 MEMB     29       OSM      O14      O2L     -0.780000       15.9994           0
      3274 MEMB     29       OSM      O11      OSLP    -0.570000       15.9994           0
      3275 MEMB     29       OSM      O12      OSLP    -0.570000       15.9994           0
      3276 MEMB     29       OSM      C1S      CTL2    -0.800000E-01   12.0110           0
      3277 MEMB     29       OSM      H1S      HAL2     0.900000E-01   1.00800           0
      3278 MEMB     29       OSM      H1T      HAL2     0.900000E-01   1.00800           0
      3279 MEMB     29       OSM      NF       NHL     -0.700000       14.0070           0
      3280 MEMB     29       OSM      HNF      H        0.350000       1.00800           0
      3281 MEMB     29       OSM      C2S      CTL1     0.300000       12.0110           0
      3282 MEMB     29       OSM      H2S      HAL1     0.500000E-01   1.00800           0
      3283 MEMB     29       OSM      C3S      CTO1     0.500000       12.0110           0
      3284 MEMB     29       OSM      H3S      HAL1    -0.110000       1.00800           0
      3285 MEMB     29       OSM      O3       OHL     -0.690000       15.9994           0
      3286 MEMB     29       OSM      HO3      HOL      0.300000       1.00800           0
      3287 MEMB     29       OSM      C4S      CEL3    -0.150000       12.0110           0
      3288 MEMB     29       OSM      H4S      HEL1     0.150000       1.00800           0
      3289 MEMB     29       OSM      C5S      CEL3    -0.150000       12.0110           0
      3290 MEMB     29       OSM      H5S      HEL1     0.150000       1.00800           0
      3291 MEMB     29       OSM      C6S      CTL2    -0.180000       12.0110           0
      3292 MEMB     29       OSM      H6S      HAL2     0.900000E-01   1.00800           0
      3293 MEMB     29       OSM      H6T      HAL2     0.900000E-01   1.00800           0
      3294 MEMB     29       OSM      C7S      CTL2    -0.180000       12.0110           0
      3295 MEMB     29       OSM      H7S      HAL2     0.900000E-01   1.00800           0
      3296 MEMB     29       OSM      H7T      HAL2     0.900000E-01   1.00800           0
      3297 MEMB     29       OSM      C8S      CTL2    -0.180000       12.0110           0
      3298 MEMB     29       OSM      H8S      HAL2     0.900000E-01   1.00800           0
      3299 MEMB     29       OSM      H8T      HAL2     0.900000E-01   1.00800           0
      3300 MEMB     29       OSM      C9S      CTL2    -0.180000       12.0110           0
      3301 MEMB     29       OSM      H9S      HAL2     0.900000E-01   1.00800           0
      3302 MEMB     29       OSM      H9T      HAL2     0.900000E-01   1.00800           0
      3303 MEMB     29       OSM      C10S     CTL2    -0.180000       12.0110           0
      3304 MEMB     29       OSM      H10S     HAL2     0.900000E-01   1.00800           0
      3305 MEMB     29       OSM      H10T     HAL2     0.900000E-01   1.00800           0
      3306 MEMB     29       OSM      C11S     CTL2    -0.180000       12.0110           0
      3307 MEMB     29       OSM      H11S     HAL2     0.900000E-01   1.00800           0
      3308 MEMB     29       OSM      H11T     HAL2     0.900000E-01   1.00800           0
      3309 MEMB     29       OSM      C12S     CTL2    -0.180000       12.0110           0
      3310 MEMB     29       OSM      H12S     HAL2     0.900000E-01   1.00800           0
      3311 MEMB     29       OSM      H12T     HAL2     0.900000E-01   1.00800           0
      3312 MEMB     29       OSM      C13S     CTL2    -0.180000       12.0110           0
      3313 MEMB     29       OSM      H13S     HAL2     0.900000E-01   1.00800           0
      3314 MEMB     29       OSM      H13T     HAL2     0.900000E-01   1.00800           0
      3315 MEMB     29       OSM      C14S     CTL2    -0.180000       12.0110           0
      3316 MEMB     29       OSM      H14S     HAL2     0.900000E-01   1.00800           0
      3317 MEMB     29       OSM      H14T     HAL2     0.900000E-01   1.00800           0
      3318 MEMB     29       OSM      C15S     CTL2    -0.180000       12.0110           0
      3319 MEMB     29       OSM      H15S     HAL2     0.900000E-01   1.00800           0
      3320 MEMB     29       OSM      H15T     HAL2     0.900000E-01   1.00800           0
      3321 MEMB     29       OSM      C16S     CTL2    -0.180000       12.0110           0
      3322 MEMB     29       OSM      H16S     HAL2     0.900000E-01   1.00800           0
      3323 MEMB     29       OSM      H16T     HAL2     0.900000E-01   1.00800           0
      3324 MEMB     29       OSM      C17S     CTL2    -0.180000       12.0110           0
      3325 MEMB     29       OSM      H17S     HAL2     0.900000E-01   1.00800           0
      3326 MEMB     29       OSM      H17T     HAL2     0.900000E-01   1.00800           0
      3327 MEMB     29       OSM      C18S     CTL3    -0.270000       12.0110           0
      3328 MEMB     29       OSM      H18S     HAL3     0.900000E-01   1.00800           0
      3329 MEMB     29       OSM      H18T     HAL3     0.900000E-01   1.00800           0
      3330 MEMB     29       OSM      H18U     HAL3     0.900000E-01   1.00800           0
      3331 MEMB     29       OSM      C1F      C        0.550000       12.0110           0
      3332 MEMB     29       OSM      OF       O       -0.600000       15.9994           0
      3333 MEMB     29       OSM      C2F      CTL2    -0.700000E-01   12.0110           0
      3334 MEMB     29       OSM      H2F      HAL2     0.600000E-01   1.00800           0
      3335 MEMB     29       OSM      H2G      HAL2     0.600000E-01   1.00800           0
      3336 MEMB     29       OSM      C3F      CTL2    -0.180000       12.0110           0
      3337 MEMB     29       OSM      H3F      HAL2     0.900000E-01   1.00800           0
      3338 MEMB     29       OSM      H3G      HAL2     0.900000E-01   1.00800           0
      3339 MEMB     29       OSM      C4F      CTL2    -0.180000       12.0110           0
      3340 MEMB     29       OSM      H4F      HAL2     0.900000E-01   1.00800           0
      3341 MEMB     29       OSM      H4G      HAL2     0.900000E-01   1.00800           0
      3342 MEMB     29       OSM      C5F      CTL2    -0.180000       12.0110           0
      3343 MEMB     29       OSM      H5F      HAL2     0.900000E-01   1.00800           0
      3344 MEMB     29       OSM      H5G      HAL2     0.900000E-01   1.00800           0
      3345 MEMB     29       OSM      C6F      CTL2    -0.180000       12.0110           0
      3346 MEMB     29       OSM      H6F      HAL2     0.900000E-01   1.00800           0
      3347 MEMB     29       OSM      H6G      HAL2     0.900000E-01   1.00800           0
      3348 MEMB     29       OSM      C7F      CTL2    -0.180000       12.0110           0
      3349 MEMB     29       OSM      H7F      HAL2     0.900000E-01   1.00800           0
      3350 MEMB     29       OSM      H7G      HAL2     0.900000E-01   1.00800           0
      3351 MEMB     29       OSM      C8F      CTL2    -0.180000       12.0110           0
      3352 MEMB     29       OSM      H8F      HAL2     0.900000E-01   1.00800           0
      3353 MEMB     29       OSM      H8G      HAL2     0.900000E-01   1.00800           0
      3354 MEMB     29       OSM      C9F      CEL1    -0.150000       12.0110           0
      3355 MEMB     29       OSM      H9F      HEL1     0.150000       1.00800           0
      3356 MEMB     29       OSM      C10F     CEL1    -0.150000       12.0110           0
      3357 MEMB     29       OSM      H10F     HEL1     0.150000       1.00800           0
      3358 MEMB     29       OSM      C11F     CTL2    -0.180000       12.0110           0
      3359 MEMB     29       OSM      H11F     HAL2     0.900000E-01   1.00800           0
      3360 MEMB     29       OSM      H11G     HAL2     0.900000E-01   1.00800           0
      3361 MEMB     29       OSM      C12F     CTL2    -0.180000       12.0110           0
      3362 MEMB     29       OSM      H12F     HAL2     0.900000E-01   1.00800           0
      3363 MEMB     29       OSM      H12G     HAL2     0.900000E-01   1.00800           0
      3364 MEMB     29       OSM      C13F     CTL2    -0.180000       12.0110           0
      3365 MEMB     29       OSM      H13F     HAL2     0.900000E-01   1.00800           0
      3366 MEMB     29       OSM      H13G     HAL2     0.900000E-01   1.00800           0
      3367 MEMB     29       OSM      C14F     CTL2    -0.180000       12.0110           0
      3368 MEMB     29       OSM      H14F     HAL2     0.900000E-01   1.00800           0
      3369 MEMB     29       OSM      H14G     HAL2     0.900000E-01   1.00800           0
      3370 MEMB     29       OSM      C15F     CTL2    -0.180000       12.0110           0
      3371 MEMB     29       OSM      H15F     HAL2     0.900000E-01   1.00800           0
      3372 MEMB     29       OSM      H15G     HAL2     0.900000E-01   1.00800           0
      3373 MEMB     29       OSM      C16F     CTL2    -0.180000       12.0110           0
      3374 MEMB     29       OSM      H16F     HAL2     0.900000E-01   1.00800           0
      3375 MEMB     29       OSM      H16G     HAL2     0.900000E-01   1.00800           0
      3376 MEMB     29       OSM      C17F     CTL2    -0.180000       12.0110           0
      3377 MEMB     29       OSM      H17F     HAL2     0.900000E-01   1.00800           0
      3378 MEMB     29       OSM      H17G     HAL2     0.900000E-01   1.00800           0
      3379 MEMB     29       OSM      C18F     CTL3    -0.270000       12.0110           0
      3380 MEMB     29       OSM      H18F     HAL3     0.900000E-01   1.00800           0
      3381 MEMB     29       OSM      H18G     HAL3     0.900000E-01   1.00800           0
      3382 MEMB     29       OSM      H18H     HAL3     0.900000E-01   1.00800           0
      3383 MEMB     30       SOPE     N        NH3L    -0.300000       14.0070           0
      3384 MEMB     30       SOPE     HN1      HCL      0.330000       1.00800           0
      3385 MEMB     30       SOPE     HN2      HCL      0.330000       1.00800           0
      3386 MEMB     30       SOPE     HN3      HCL      0.330000       1.00800           0
      3387 MEMB     30       SOPE     C12      CTL2     0.130000       12.0110           0
      3388 MEMB     30       SOPE     H12A     HAL2     0.900000E-01   1.00800           0
      3389 MEMB     30       SOPE     H12B     HAL2     0.900000E-01   1.00800           0
      3390 MEMB     30       SOPE     C11      CTL2    -0.800000E-01   12.0110           0
      3391 MEMB     30       SOPE     H11A     HAL2     0.900000E-01   1.00800           0
      3392 MEMB     30       SOPE     H11B     HAL2     0.900000E-01   1.00800           0
      3393 MEMB     30       SOPE     P        PL        1.50000       30.9740           0
      3394 MEMB     30       SOPE     O13      O2L     -0.780000       15.9994           0
      3395 MEMB     30       SOPE     O14      O2L     -0.780000       15.9994           0
      3396 MEMB     30       SOPE     O12      OSLP    -0.570000       15.9994           0
      3397 MEMB     30       SOPE     O11      OSLP    -0.570000       15.9994           0
      3398 MEMB     30       SOPE     C1       CTL2    -0.800000E-01   12.0110           0
      3399 MEMB     30       SOPE     HA       HAL2     0.900000E-01   1.00800           0
      3400 MEMB     30       SOPE     HB       HAL2     0.900000E-01   1.00800           0
      3401 MEMB     30       SOPE     C2       CTL1     0.170000       12.0110           0
      3402 MEMB     30       SOPE     HS       HAL1     0.900000E-01   1.00800           0
      3403 MEMB     30       SOPE     O21      OSL     -0.490000       15.9994           0
      3404 MEMB     30       SOPE     C21      CL       0.900000       12.0110           0
      3405 MEMB     30       SOPE     O22      OBL     -0.630000       15.9994           0
      3406 MEMB     30       SOPE     C22      CTL2    -0.220000       12.0110           0
      3407 MEMB     30       SOPE     H2R      HAL2     0.900000E-01   1.00800           0
      3408 MEMB     30       SOPE     H2S      HAL2     0.900000E-01   1.00800           0
      3409 MEMB     30       SOPE     C3       CTL2     0.800000E-01   12.0110           0
      3410 MEMB     30       SOPE     HX       HAL2     0.900000E-01   1.00800           0
      3411 MEMB     30       SOPE     HY       HAL2     0.900000E-01   1.00800           0
      3412 MEMB     30       SOPE     O31      OSL     -0.490000       15.9994           0
      3413 MEMB     30       SOPE     C31      CL       0.900000       12.0110           0
      3414 MEMB     30       SOPE     O32      OBL     -0.630000       15.9994           0
      3415 MEMB     30       SOPE     C32      CTL2    -0.220000       12.0110           0
      3416 MEMB     30       SOPE     H2X      HAL2     0.900000E-01   1.00800           0
      3417 MEMB     30       SOPE     H2Y      HAL2     0.900000E-01   1.00800           0
      3418 MEMB     30       SOPE     C23      CTL2    -0.180000       12.0110           0
      3419 MEMB     30       SOPE     H3R      HAL2     0.900000E-01   1.00800           0
      3420 MEMB     30       SOPE     H3S      HAL2     0.900000E-01   1.00800           0
      3421 MEMB     30       SOPE     C24      CTL2    -0.180000       12.0110           0
      3422 MEMB     30       SOPE     H4R      HAL2     0.900000E-01   1.00800           0
      3423 MEMB     30       SOPE     H4S      HAL2     0.900000E-01   1.00800           0
      3424 MEMB     30       SOPE     C25      CTL2    -0.180000       12.0110           0
      3425 MEMB     30       SOPE     H5R      HAL2     0.900000E-01   1.00800           0
      3426 MEMB     30       SOPE     H5S      HAL2     0.900000E-01   1.00800           0
      3427 MEMB     30       SOPE     C26      CTL2    -0.180000       12.0110           0
      3428 MEMB     30       SOPE     H6R      HAL2     0.900000E-01   1.00800           0
      3429 MEMB     30       SOPE     H6S      HAL2     0.900000E-01   1.00800           0
      3430 MEMB     30       SOPE     C27      CTL2    -0.180000       12.0110           0
      3431 MEMB     30       SOPE     H7R      HAL2     0.900000E-01   1.00800           0
      3432 MEMB     30       SOPE     H7S      HAL2     0.900000E-01   1.00800           0
      3433 MEMB     30       SOPE     C28      CTL2    -0.180000       12.0110           0
      3434 MEMB     30       SOPE     H8R      HAL2     0.900000E-01   1.00800           0
      3435 MEMB     30       SOPE     H8S      HAL2     0.900000E-01   1.00800           0
      3436 MEMB     30       SOPE     C29      CEL1    -0.150000       12.0110           0
      3437 MEMB     30       SOPE     H91      HEL1     0.150000       1.00800           0
      3438 MEMB     30       SOPE     C210     CEL1    -0.150000       12.0110           0
      3439 MEMB     30       SOPE     H101     HEL1     0.150000       1.00800           0
      3440 MEMB     30       SOPE     C211     CTL2    -0.180000       12.0110           0
      3441 MEMB     30       SOPE     H11R     HAL2     0.900000E-01   1.00800           0
      3442 MEMB     30       SOPE     H11S     HAL2     0.900000E-01   1.00800           0
      3443 MEMB     30       SOPE     C212     CTL2    -0.180000       12.0110           0
      3444 MEMB     30       SOPE     H12R     HAL2     0.900000E-01   1.00800           0
      3445 MEMB     30       SOPE     H12S     HAL2     0.900000E-01   1.00800           0
      3446 MEMB     30       SOPE     C213     CTL2    -0.180000       12.0110           0
      3447 MEMB     30       SOPE     H13R     HAL2     0.900000E-01   1.00800           0
      3448 MEMB     30       SOPE     H13S     HAL2     0.900000E-01   1.00800           0
      3449 MEMB     30       SOPE     C214     CTL2    -0.180000       12.0110           0
      3450 MEMB     30       SOPE     H14R     HAL2     0.900000E-01   1.00800           0
      3451 MEMB     30       SOPE     H14S     HAL2     0.900000E-01   1.00800           0
      3452 MEMB     30       SOPE     C215     CTL2    -0.180000       12.0110           0
      3453 MEMB     30       SOPE     H15R     HAL2     0.900000E-01   1.00800           0
      3454 MEMB     30       SOPE     H15S     HAL2     0.900000E-01   1.00800           0
      3455 MEMB     30       SOPE     C216     CTL2    -0.180000       12.0110           0
      3456 MEMB     30       SOPE     H16R     HAL2     0.900000E-01   1.00800           0
      3457 MEMB     30       SOPE     H16S     HAL2     0.900000E-01   1.00800           0
      3458 MEMB     30       SOPE     C217     CTL2    -0.180000       12.0110           0
      3459 MEMB     30       SOPE     H17R     HAL2     0.900000E-01   1.00800           0
      3460 MEMB     30       SOPE     H17S     HAL2     0.900000E-01   1.00800           0
      3461 MEMB     30       SOPE     C218     CTL3    -0.270000       12.0110           0
      3462 MEMB     30       SOPE     H18R     HAL3     0.900000E-01   1.00800           0
      3463 MEMB     30       SOPE     H18S     HAL3     0.900000E-01   1.00800           0
      3464 MEMB     30       SOPE     H18T     HAL3     0.900000E-01   1.00800           0
      3465 MEMB     30       SOPE     C33      CTL2    -0.180000       12.0110           0
      3466 MEMB     30       SOPE     H3X      HAL2     0.900000E-01   1.00800           0
      3467 MEMB     30       SOPE     H3Y      HAL2     0.900000E-01   1.00800           0
      3468 MEMB     30       SOPE     C34      CTL2    -0.180000       12.0110           0
      3469 MEMB     30       SOPE     H4X      HAL2     0.900000E-01   1.00800           0
      3470 MEMB     30       SOPE     H4Y      HAL2     0.900000E-01   1.00800           0
      3471 MEMB     30       SOPE     C35      CTL2    -0.180000       12.0110           0
      3472 MEMB     30       SOPE     H5X      HAL2     0.900000E-01   1.00800           0
      3473 MEMB     30       SOPE     H5Y      HAL2     0.900000E-01   1.00800           0
      3474 MEMB     30       SOPE     C36      CTL2    -0.180000       12.0110           0
      3475 MEMB     30       SOPE     H6X      HAL2     0.900000E-01   1.00800           0
      3476 MEMB     30       SOPE     H6Y      HAL2     0.900000E-01   1.00800           0
      3477 MEMB     30       SOPE     C37      CTL2    -0.180000       12.0110           0
      3478 MEMB     30       SOPE     H7X      HAL2     0.900000E-01   1.00800           0
      3479 MEMB     30       SOPE     H7Y      HAL2     0.900000E-01   1.00800           0
      3480 MEMB     30       SOPE     C38      CTL2    -0.180000       12.0110           0
      3481 MEMB     30       SOPE     H8X      HAL2     0.900000E-01   1.00800           0
      3482 MEMB     30       SOPE     H8Y      HAL2     0.900000E-01   1.00800           0
      3483 MEMB     30       SOPE     C39      CTL2    -0.180000       12.0110           0
      3484 MEMB     30       SOPE     H9X      HAL2     0.900000E-01   1.00800           0
      3485 MEMB     30       SOPE     H9Y      HAL2     0.900000E-01   1.00800           0
      3486 MEMB     30       SOPE     C310     CTL2    -0.180000       12.0110           0
      3487 MEMB     30       SOPE     H10X     HAL2     0.900000E-01   1.00800           0
      3488 MEMB     30       SOPE     H10Y     HAL2     0.900000E-01   1.00800           0
      3489 MEMB     30       SOPE     C311     CTL2    -0.180000       12.0110           0
      3490 MEMB     30       SOPE     H11X     HAL2     0.900000E-01   1.00800           0
      3491 MEMB     30       SOPE     H11Y     HAL2     0.900000E-01   1.00800           0
      3492 MEMB     30       SOPE     C312     CTL2    -0.180000       12.0110           0
      3493 MEMB     30       SOPE     H12X     HAL2     0.900000E-01   1.00800           0
      3494 MEMB     30       SOPE     H12Y     HAL2     0.900000E-01   1.00800           0
      3495 MEMB     30       SOPE     C313     CTL2    -0.180000       12.0110           0
      3496 MEMB     30       SOPE     H13X     HAL2     0.900000E-01   1.00800           0
      3497 MEMB     30       SOPE     H13Y     HAL2     0.900000E-01   1.00800           0
      3498 MEMB     30       SOPE     C314     CTL2    -0.180000       12.0110           0
      3499 MEMB     30       SOPE     H14X     HAL2     0.900000E-01   1.00800           0
      3500 MEMB     30       SOPE     H14Y     HAL2     0.900000E-01   1.00800           0
      3501 MEMB     30       SOPE     C315     CTL2    -0.180000       12.0110           0
      3502 MEMB     30       SOPE     H15X     HAL2     0.900000E-01   1.00800           0
      3503 MEMB     30       SOPE     H15Y     HAL2     0.900000E-01   1.00800           0
      3504 MEMB     30       SOPE     C316     CTL2    -0.180000       12.0110           0
      3505 MEMB     30       SOPE     H16X     HAL2     0.900000E-01   1.00800           0
      3506 MEMB     30       SOPE     H16Y     HAL2     0.900000E-01   1.00800           0
      3507 MEMB     30       SOPE     C317     CTL2    -0.180000       12.0110           0
      3508 MEMB     30       SOPE     H17X     HAL2     0.900000E-01   1.00800           0
      3509 MEMB     30       SOPE     H17Y     HAL2     0.900000E-01   1.00800           0
      3510 MEMB     30       SOPE     C318     CTL3    -0.270000       12.0110           0
      3511 MEMB     30       SOPE     H18X     HAL3     0.900000E-01   1.00800           0
      3512 MEMB     30       SOPE     H18Y     HAL3     0.900000E-01   1.00800           0
      3513 MEMB     30       SOPE     H18Z     HAL3     0.900000E-01   1.00800           0
      3514 MEMB     31       OSM      N        NTL     -0.600000       14.0070           0
      3515 MEMB     31       OSM      C15      CTL5    -0.350000       12.0110           0
      3516 MEMB     31       OSM      H15A     HL       0.250000       1.00800           0
      3517 MEMB     31       OSM      H15B     HL       0.250000       1.00800           0
      3518 MEMB     31       OSM      H15C     HL       0.250000       1.00800           0
      3519 MEMB     31       OSM      C14      CTL5    -0.350000       12.0110           0
      3520 MEMB     31       OSM      H14A     HL       0.250000       1.00800           0
      3521 MEMB     31       OSM      H14B     HL       0.250000       1.00800           0
      3522 MEMB     31       OSM      H14C     HL       0.250000       1.00800           0
      3523 MEMB     31       OSM      C13      CTL5    -0.350000       12.0110           0
      3524 MEMB     31       OSM      H13A     HL       0.250000       1.00800           0
      3525 MEMB     31       OSM      H13B     HL       0.250000       1.00800           0
      3526 MEMB     31       OSM      H13C     HL       0.250000       1.00800           0
      3527 MEMB     31       OSM      C12      CTL2    -0.100000       12.0110           0
      3528 MEMB     31       OSM      H12A     HL       0.250000       1.00800           0
      3529 MEMB     31       OSM      H12B     HL       0.250000       1.00800           0
      3530 MEMB     31       OSM      C11      CTL2    -0.800000E-01   12.0110           0
      3531 MEMB     31       OSM      H11A     HAL2     0.900000E-01   1.00800           0
      3532 MEMB     31       OSM      H11B     HAL2     0.900000E-01   1.00800           0
      3533 MEMB     31       OSM      P        PL        1.50000       30.9740           0
      3534 MEMB     31       OSM      O13      O2L     -0.780000       15.9994           0
      3535 MEMB     31       OSM      O14      O2L     -0.780000       15.9994           0
      3536 MEMB     31       OSM      O11      OSLP    -0.570000       15.9994           0
      3537 MEMB     31       OSM      O12      OSLP    -0.570000       15.9994           0
      3538 MEMB     31       OSM      C1S      CTL2    -0.800000E-01   12.0110           0
      3539 MEMB     31       OSM      H1S      HAL2     0.900000E-01   1.00800           0
      3540 MEMB     31       OSM      H1T      HAL2     0.900000E-01   1.00800           0
      3541 MEMB     31       OSM      NF       NHL     -0.700000       14.0070           0
      3542 MEMB     31       OSM      HNF      H        0.350000       1.00800           0
      3543 MEMB     31       OSM      C2S      CTL1     0.300000       12.0110           0
      3544 MEMB     31       OSM      H2S      HAL1     0.500000E-01   1.00800           0
      3545 MEMB     31       OSM      C3S      CTO1     0.500000       12.0110           0
      3546 MEMB     31       OSM      H3S      HAL1    -0.110000       1.00800           0
      3547 MEMB     31       OSM      O3       OHL     -0.690000       15.9994           0
      3548 MEMB     31       OSM      HO3      HOL      0.300000       1.00800           0
      3549 MEMB     31       OSM      C4S      CEL3    -0.150000       12.0110           0
      3550 MEMB     31       OSM      H4S      HEL1     0.150000       1.00800           0
      3551 MEMB     31       OSM      C5S      CEL3    -0.150000       12.0110           0
      3552 MEMB     31       OSM      H5S      HEL1     0.150000       1.00800           0
      3553 MEMB     31       OSM      C6S      CTL2    -0.180000       12.0110           0
      3554 MEMB     31       OSM      H6S      HAL2     0.900000E-01   1.00800           0
      3555 MEMB     31       OSM      H6T      HAL2     0.900000E-01   1.00800           0
      3556 MEMB     31       OSM      C7S      CTL2    -0.180000       12.0110           0
      3557 MEMB     31       OSM      H7S      HAL2     0.900000E-01   1.00800           0
      3558 MEMB     31       OSM      H7T      HAL2     0.900000E-01   1.00800           0
      3559 MEMB     31       OSM      C8S      CTL2    -0.180000       12.0110           0
      3560 MEMB     31       OSM      H8S      HAL2     0.900000E-01   1.00800           0
      3561 MEMB     31       OSM      H8T      HAL2     0.900000E-01   1.00800           0
      3562 MEMB     31       OSM      C9S      CTL2    -0.180000       12.0110           0
      3563 MEMB     31       OSM      H9S      HAL2     0.900000E-01   1.00800           0
      3564 MEMB     31       OSM      H9T      HAL2     0.900000E-01   1.00800           0
      3565 MEMB     31       OSM      C10S     CTL2    -0.180000       12.0110           0
      3566 MEMB     31       OSM      H10S     HAL2     0.900000E-01   1.00800           0
      3567 MEMB     31       OSM      H10T     HAL2     0.900000E-01   1.00800           0
      3568 MEMB     31       OSM      C11S     CTL2    -0.180000       12.0110           0
      3569 MEMB     31       OSM      H11S     HAL2     0.900000E-01   1.00800           0
      3570 MEMB     31       OSM      H11T     HAL2     0.900000E-01   1.00800           0
      3571 MEMB     31       OSM      C12S     CTL2    -0.180000       12.0110           0
      3572 MEMB     31       OSM      H12S     HAL2     0.900000E-01   1.00800           0
      3573 MEMB     31       OSM      H12T     HAL2     0.900000E-01   1.00800           0
      3574 MEMB     31       OSM      C13S     CTL2    -0.180000       12.0110           0
      3575 MEMB     31       OSM      H13S     HAL2     0.900000E-01   1.00800           0
      3576 MEMB     31       OSM      H13T     HAL2     0.900000E-01   1.00800           0
      3577 MEMB     31       OSM      C14S     CTL2    -0.180000       12.0110           0
      3578 MEMB     31       OSM      H14S     HAL2     0.900000E-01   1.00800           0
      3579 MEMB     31       OSM      H14T     HAL2     0.900000E-01   1.00800           0
      3580 MEMB     31       OSM      C15S     CTL2    -0.180000       12.0110           0
      3581 MEMB     31       OSM      H15S     HAL2     0.900000E-01   1.00800           0
      3582 MEMB     31       OSM      H15T     HAL2     0.900000E-01   1.00800           0
      3583 MEMB     31       OSM      C16S     CTL2    -0.180000       12.0110           0
      3584 MEMB     31       OSM      H16S     HAL2     0.900000E-01   1.00800           0
      3585 MEMB     31       OSM      H16T     HAL2     0.900000E-01   1.00800           0
      3586 MEMB     31       OSM      C17S     CTL2    -0.180000       12.0110           0
      3587 MEMB     31       OSM      H17S     HAL2     0.900000E-01   1.00800           0
      3588 MEMB     31       OSM      H17T     HAL2     0.900000E-01   1.00800           0
      3589 MEMB     31       OSM      C18S     CTL3    -0.270000       12.0110           0
      3590 MEMB     31       OSM      H18S     HAL3     0.900000E-01   1.00800           0
      3591 MEMB     31       OSM      H18T     HAL3     0.900000E-01   1.00800           0
      3592 MEMB     31       OSM      H18U     HAL3     0.900000E-01   1.00800           0
      3593 MEMB     31       OSM      C1F      C        0.550000       12.0110           0
      3594 MEMB     31       OSM      OF       O       -0.600000       15.9994           0
      3595 MEMB     31       OSM      C2F      CTL2    -0.700000E-01   12.0110           0
      3596 MEMB     31       OSM      H2F      HAL2     0.600000E-01   1.00800           0
      3597 MEMB     31       OSM      H2G      HAL2     0.600000E-01   1.00800           0
      3598 MEMB     31       OSM      C3F      CTL2    -0.180000       12.0110           0
      3599 MEMB     31       OSM      H3F      HAL2     0.900000E-01   1.00800           0
      3600 MEMB     31       OSM      H3G      HAL2     0.900000E-01   1.00800           0
      3601 MEMB     31       OSM      C4F      CTL2    -0.180000       12.0110           0
      3602 MEMB     31       OSM      H4F      HAL2     0.900000E-01   1.00800           0
      3603 MEMB     31       OSM      H4G      HAL2     0.900000E-01   1.00800           0
      3604 MEMB     31       OSM      C5F      CTL2    -0.180000       12.0110           0
      3605 MEMB     31       OSM      H5F      HAL2     0.900000E-01   1.00800           0
      3606 MEMB     31       OSM      H5G      HAL2     0.900000E-01   1.00800           0
      3607 MEMB     31       OSM      C6F      CTL2    -0.180000       12.0110           0
      3608 MEMB     31       OSM      H6F      HAL2     0.900000E-01   1.00800           0
      3609 MEMB     31       OSM      H6G      HAL2     0.900000E-01   1.00800           0
      3610 MEMB     31       OSM      C7F      CTL2    -0.180000       12.0110           0
      3611 MEMB     31       OSM      H7F      HAL2     0.900000E-01   1.00800           0
      3612 MEMB     31       OSM      H7G      HAL2     0.900000E-01   1.00800           0
      3613 MEMB     31       OSM      C8F      CTL2    -0.180000       12.0110           0
      3614 MEMB     31       OSM      H8F      HAL2     0.900000E-01   1.00800           0
      3615 MEMB     31       OSM      H8G      HAL2     0.900000E-01   1.00800           0
      3616 MEMB     31       OSM      C9F      CEL1    -0.150000       12.0110           0
      3617 MEMB     31       OSM      H9F      HEL1     0.150000       1.00800           0
      3618 MEMB     31       OSM      C10F     CEL1    -0.150000       12.0110           0
      3619 MEMB     31       OSM      H10F     HEL1     0.150000       1.00800           0
      3620 MEMB     31       OSM      C11F     CTL2    -0.180000       12.0110           0
      3621 MEMB     31       OSM      H11F     HAL2     0.900000E-01   1.00800           0
      3622 MEMB     31       OSM      H11G     HAL2     0.900000E-01   1.00800           0
      3623 MEMB     31       OSM      C12F     CTL2    -0.180000       12.0110           0
      3624 MEMB     31       OSM      H12F     HAL2     0.900000E-01   1.00800           0
      3625 MEMB     31       OSM      H12G     HAL2     0.900000E-01   1.00800           0
      3626 MEMB     31       OSM      C13F     CTL2    -0.180000       12.0110           0
      3627 MEMB     31       OSM      H13F     HAL2     0.900000E-01   1.00800           0
      3628 MEMB     31       OSM      H13G     HAL2     0.900000E-01   1.00800           0
      3629 MEMB     31       OSM      C14F     CTL2    -0.180000       12.0110           0
      3630 MEMB     31       OSM      H14F     HAL2     0.900000E-01   1.00800           0
      3631 MEMB     31       OSM      H14G     HAL2     0.900000E-01   1.00800           0
      3632 MEMB     31       OSM      C15F     CTL2    -0.180000       12.0110           0
      3633 MEMB     31       OSM      H15F     HAL2     0.900000E-01   1.00800           0
      3634 MEMB     31       OSM      H15G     HAL2     0.900000E-01   1.00800           0
      3635 MEMB     31       OSM      C16F     CTL2    -0.180000       12.0110           0
      3636 MEMB     31       OSM      H16F     HAL2     0.900000E-01   1.00800           0
      3637 MEMB     31       OSM      H16G     HAL2     0.900000E-01   1.00800           0
      3638 MEMB     31       OSM      C17F     CTL2    -0.180000       12.0110           0
      3639 MEMB     31       OSM      H17F     HAL2     0.900000E-01   1.00800           0
      3640 MEMB     31       OSM      H17G     HAL2     0.900000E-01   1.00800           0
      3641 MEMB     31       OSM      C18F     CTL3    -0.270000       12.0110           0
      3642 MEMB     31       OSM      H18F     HAL3     0.900000E-01   1.00800           0
      3643 MEMB     31       OSM      H18G     HAL3     0.900000E-01   1.00800           0
      3644 MEMB     31       OSM      H18H     HAL3     0.900000E-01   1.00800           0
      3645 MEMB     32       CHL1     C3       CRL1     0.140000       12.0110           0
      3646 MEMB     32       CHL1     H3       HGA1     0.900000E-01   1.00800           0
      3647 MEMB     32       CHL1     O3       OHL     -0.660000       15.9994           0
      3648 MEMB     32       CHL1     H3'      HOL      0.430000       1.00800           0
      3649 MEMB     32       CHL1     C4       CRL2    -0.180000       12.0110           0
      3650 MEMB     32       CHL1     H4A      HGA2     0.900000E-01   1.00800           0
      3651 MEMB     32       CHL1     H4B      HGA2     0.900000E-01   1.00800           0
      3652 MEMB     32       CHL1     C5       CEL1      0.00000       12.0110           0
      3653 MEMB     32       CHL1     C6       CEL1    -0.150000       12.0110           0
      3654 MEMB     32       CHL1     H6       HEL1     0.150000       1.00800           0
      3655 MEMB     32       CHL1     C7       CRL2    -0.180000       12.0110           0
      3656 MEMB     32       CHL1     H7A      HGA2     0.900000E-01   1.00800           0
      3657 MEMB     32       CHL1     H7B      HGA2     0.900000E-01   1.00800           0
      3658 MEMB     32       CHL1     C8       CRL1    -0.900000E-01   12.0110           0
      3659 MEMB     32       CHL1     H8       HGA1     0.900000E-01   1.00800           0
      3660 MEMB     32       CHL1     C14      CRL1    -0.900000E-01   12.0110           0
      3661 MEMB     32       CHL1     H14      HGA1     0.900000E-01   1.00800           0
      3662 MEMB     32       CHL1     C15      CRL2    -0.180000       12.0110           0
      3663 MEMB     32       CHL1     H15A     HGA2     0.900000E-01   1.00800           0
      3664 MEMB     32       CHL1     H15B     HGA2     0.900000E-01   1.00800           0
      3665 MEMB     32       CHL1     C16      CRL2    -0.180000       12.0110           0
      3666 MEMB     32       CHL1     H16A     HGA2     0.900000E-01   1.00800           0
      3667 MEMB     32       CHL1     H16B     HGA2     0.900000E-01   1.00800           0
      3668 MEMB     32       CHL1     C17      CRL1    -0.900000E-01   12.0110           0
      3669 MEMB     32       CHL1     H17      HGA1     0.900000E-01   1.00800           0
      3670 MEMB     32       CHL1     C13      CRL1      0.00000       12.0110           0
      3671 MEMB     32       CHL1     C18      CTL3    -0.270000       12.0110           0
      3672 MEMB     32       CHL1     H18A     HAL3     0.900000E-01   1.00800           0
      3673 MEMB     32       CHL1     H18B     HAL3     0.900000E-01   1.00800           0
      3674 MEMB     32       CHL1     H18C     HAL3     0.900000E-01   1.00800           0
      3675 MEMB     32       CHL1     C12      CRL2    -0.180000       12.0110           0
      3676 MEMB     32       CHL1     H12A     HGA2     0.900000E-01   1.00800           0
      3677 MEMB     32       CHL1     H12B     HGA2     0.900000E-01   1.00800           0
      3678 MEMB     32       CHL1     C11      CRL2    -0.180000       12.0110           0
      3679 MEMB     32       CHL1     H11A     HGA2     0.900000E-01   1.00800           0
      3680 MEMB     32       CHL1     H11B     HGA2     0.900000E-01   1.00800           0
      3681 MEMB     32       CHL1     C9       CRL1    -0.900000E-01   12.0110           0
      3682 MEMB     32       CHL1     H9       HGA1     0.900000E-01   1.00800           0
      3683 MEMB     32       CHL1     C10      CRL1      0.00000       12.0110           0
      3684 MEMB     32       CHL1     C19      CTL3    -0.270000       12.0110           0
      3685 MEMB     32       CHL1     H19A     HAL3     0.900000E-01   1.00800           0
      3686 MEMB     32       CHL1     H19B     HAL3     0.900000E-01   1.00800           0
      3687 MEMB     32       CHL1     H19C     HAL3     0.900000E-01   1.00800           0
      3688 MEMB     32       CHL1     C1       CRL2    -0.180000       12.0110           0
      3689 MEMB     32       CHL1     H1A      HGA2     0.900000E-01   1.00800           0
      3690 MEMB     32       CHL1     H1B      HGA2     0.900000E-01   1.00800           0
      3691 MEMB     32       CHL1     C2       CRL2    -0.180000       12.0110           0
      3692 MEMB     32       CHL1     H2A      HGA2     0.900000E-01   1.00800           0
      3693 MEMB     32       CHL1     H2B      HGA2     0.900000E-01   1.00800           0
      3694 MEMB     32       CHL1     C20      CTL1    -0.900000E-01   12.0110           0
      3695 MEMB     32       CHL1     H20      HAL1     0.900000E-01   1.00800           0
      3696 MEMB     32       CHL1     C21      CTL3    -0.270000       12.0110           0
      3697 MEMB     32       CHL1     H21A     HAL3     0.900000E-01   1.00800           0
      3698 MEMB     32       CHL1     H21B     HAL3     0.900000E-01   1.00800           0
      3699 MEMB     32       CHL1     H21C     HAL3     0.900000E-01   1.00800           0
      3700 MEMB     32       CHL1     C22      CTL2    -0.180000       12.0110           0
      3701 MEMB     32       CHL1     H22A     HAL2     0.900000E-01   1.00800           0
      3702 MEMB     32       CHL1     H22B     HAL2     0.900000E-01   1.00800           0
      3703 MEMB     32       CHL1     C23      CTL2    -0.180000       12.0110           0
      3704 MEMB     32       CHL1     H23A     HAL2     0.900000E-01   1.00800           0
      3705 MEMB     32       CHL1     H23B     HAL2     0.900000E-01   1.00800           0
      3706 MEMB     32       CHL1     C24      CTL2    -0.180000       12.0110           0
      3707 MEMB     32       CHL1     H24A     HAL2     0.900000E-01   1.00800           0
      3708 MEMB     32       CHL1     H24B     HAL2     0.900000E-01   1.00800           0
      3709 MEMB     32       CHL1     C25      CTL1    -0.900000E-01   12.0110           0
      3710 MEMB     32       CHL1     H25      HAL1     0.900000E-01   1.00800           0
      3711 MEMB     32       CHL1     C26      CTL3    -0.270000       12.0110           0
      3712 MEMB     32       CHL1     H26A     HAL3     0.900000E-01   1.00800           0
      3713 MEMB     32       CHL1     H26B     HAL3     0.900000E-01   1.00800           0
      3714 MEMB     32       CHL1     H26C     HAL3     0.900000E-01   1.00800           0
      3715 MEMB     32       CHL1     C27      CTL3    -0.270000       12.0110           0
      3716 MEMB     32       CHL1     H27A     HAL3     0.900000E-01   1.00800           0
      3717 MEMB     32       CHL1     H27B     HAL3     0.900000E-01   1.00800           0
      3718 MEMB     32       CHL1     H27C     HAL3     0.900000E-01   1.00800           0
      3719 MEMB     33       SAPE     N        NH3L    -0.300000       14.0070           0
      3720 MEMB     33       SAPE     HN1      HCL      0.330000       1.00800           0
      3721 MEMB     33       SAPE     HN2      HCL      0.330000       1.00800           0
      3722 MEMB     33       SAPE     HN3      HCL      0.330000       1.00800           0
      3723 MEMB     33       SAPE     C12      CTL2     0.130000       12.0110           0
      3724 MEMB     33       SAPE     H12A     HAL2     0.900000E-01   1.00800           0
      3725 MEMB     33       SAPE     H12B     HAL2     0.900000E-01   1.00800           0
      3726 MEMB     33       SAPE     C11      CTL2    -0.800000E-01   12.0110           0
      3727 MEMB     33       SAPE     H11A     HAL2     0.900000E-01   1.00800           0
      3728 MEMB     33       SAPE     H11B     HAL2     0.900000E-01   1.00800           0
      3729 MEMB     33       SAPE     P        PL        1.50000       30.9740           0
      3730 MEMB     33       SAPE     O13      O2L     -0.780000       15.9994           0
      3731 MEMB     33       SAPE     O14      O2L     -0.780000       15.9994           0
      3732 MEMB     33       SAPE     O12      OSLP    -0.570000       15.9994           0
      3733 MEMB     33       SAPE     O11      OSLP    -0.570000       15.9994           0
      3734 MEMB     33       SAPE     C1       CTL2    -0.800000E-01   12.0110           0
      3735 MEMB     33       SAPE     HA       HAL2     0.900000E-01   1.00800           0
      3736 MEMB     33       SAPE     HB       HAL2     0.900000E-01   1.00800           0
      3737 MEMB     33       SAPE     C2       CTL1     0.170000       12.0110           0
      3738 MEMB     33       SAPE     HS       HAL1     0.900000E-01   1.00800           0
      3739 MEMB     33       SAPE     O21      OSL     -0.490000       15.9994           0
      3740 MEMB     33       SAPE     C21      CL       0.900000       12.0110           0
      3741 MEMB     33       SAPE     O22      OBL     -0.630000       15.9994           0
      3742 MEMB     33       SAPE     C22      CTL2    -0.220000       12.0110           0
      3743 MEMB     33       SAPE     H2R      HAL2     0.900000E-01   1.00800           0
      3744 MEMB     33       SAPE     H2S      HAL2     0.900000E-01   1.00800           0
      3745 MEMB     33       SAPE     C3       CTL2     0.800000E-01   12.0110           0
      3746 MEMB     33       SAPE     HX       HAL2     0.900000E-01   1.00800           0
      3747 MEMB     33       SAPE     HY       HAL2     0.900000E-01   1.00800           0
      3748 MEMB     33       SAPE     O31      OSL     -0.490000       15.9994           0
      3749 MEMB     33       SAPE     C31      CL       0.900000       12.0110           0
      3750 MEMB     33       SAPE     O32      OBL     -0.630000       15.9994           0
      3751 MEMB     33       SAPE     C32      CTL2    -0.220000       12.0110           0
      3752 MEMB     33       SAPE     H2X      HAL2     0.900000E-01   1.00800           0
      3753 MEMB     33       SAPE     H2Y      HAL2     0.900000E-01   1.00800           0
      3754 MEMB     33       SAPE     C23      CTL2    -0.180000       12.0110           0
      3755 MEMB     33       SAPE     H3R      HAL2     0.900000E-01   1.00800           0
      3756 MEMB     33       SAPE     H3S      HAL2     0.900000E-01   1.00800           0
      3757 MEMB     33       SAPE     C24      CTL2    -0.180000       12.0110           0
      3758 MEMB     33       SAPE     H4R      HAL2     0.900000E-01   1.00800           0
      3759 MEMB     33       SAPE     H4S      HAL2     0.900000E-01   1.00800           0
      3760 MEMB     33       SAPE     C25      CEL1    -0.150000       12.0110           0
      3761 MEMB     33       SAPE     H5R      HEL1     0.150000       1.00800           0
      3762 MEMB     33       SAPE     C26      CEL1    -0.150000       12.0110           0
      3763 MEMB     33       SAPE     H6R      HEL1     0.150000       1.00800           0
      3764 MEMB     33       SAPE     C27      CTL2    -0.180000       12.0110           0
      3765 MEMB     33       SAPE     H7R      HAL2     0.900000E-01   1.00800           0
      3766 MEMB     33       SAPE     H7S      HAL2     0.900000E-01   1.00800           0
      3767 MEMB     33       SAPE     C28      CEL1    -0.150000       12.0110           0
      3768 MEMB     33       SAPE     H8R      HEL1     0.150000       1.00800           0
      3769 MEMB     33       SAPE     C29      CEL1    -0.150000       12.0110           0
      3770 MEMB     33       SAPE     H9R      HEL1     0.150000       1.00800           0
      3771 MEMB     33       SAPE     C210     CTL2    -0.180000       12.0110           0
      3772 MEMB     33       SAPE     H10R     HAL2     0.900000E-01   1.00800           0
      3773 MEMB     33       SAPE     H10S     HAL2     0.900000E-01   1.00800           0
      3774 MEMB     33       SAPE     C211     CEL1    -0.150000       12.0110           0
      3775 MEMB     33       SAPE     H11R     HEL1     0.150000       1.00800           0
      3776 MEMB     33       SAPE     C212     CEL1    -0.150000       12.0110           0
      3777 MEMB     33       SAPE     H12R     HEL1     0.150000       1.00800           0
      3778 MEMB     33       SAPE     C213     CTL2    -0.180000       12.0110           0
      3779 MEMB     33       SAPE     H13R     HAL2     0.900000E-01   1.00800           0
      3780 MEMB     33       SAPE     H13S     HAL2     0.900000E-01   1.00800           0
      3781 MEMB     33       SAPE     C214     CEL1    -0.150000       12.0110           0
      3782 MEMB     33       SAPE     H14R     HEL1     0.150000       1.00800           0
      3783 MEMB     33       SAPE     C215     CEL1    -0.150000       12.0110           0
      3784 MEMB     33       SAPE     H15R     HEL1     0.150000       1.00800           0
      3785 MEMB     33       SAPE     C216     CTL2    -0.180000       12.0110           0
      3786 MEMB     33       SAPE     H16R     HAL2     0.900000E-01   1.00800           0
      3787 MEMB     33       SAPE     H16S     HAL2     0.900000E-01   1.00800           0
      3788 MEMB     33       SAPE     C217     CTL2    -0.180000       12.0110           0
      3789 MEMB     33       SAPE     H17R     HAL2     0.900000E-01   1.00800           0
      3790 MEMB     33       SAPE     H17S     HAL2     0.900000E-01   1.00800           0
      3791 MEMB     33       SAPE     C218     CTL2    -0.180000       12.0110           0
      3792 MEMB     33       SAPE     H18R     HAL2     0.900000E-01   1.00800           0
      3793 MEMB     33       SAPE     H18S     HAL2     0.900000E-01   1.00800           0
      3794 MEMB     33       SAPE     C219     CTL2    -0.180000       12.0110           0
      3795 MEMB     33       SAPE     H19R     HAL2     0.900000E-01   1.00800           0
      3796 MEMB     33       SAPE     H19S     HAL2     0.900000E-01   1.00800           0
      3797 MEMB     33       SAPE     C220     CTL3    -0.270000       12.0110           0
      3798 MEMB     33       SAPE     H20R     HAL3     0.900000E-01   1.00800           0
      3799 MEMB     33       SAPE     H20S     HAL3     0.900000E-01   1.00800           0
      3800 MEMB     33       SAPE     H20T     HAL3     0.900000E-01   1.00800           0
      3801 MEMB     33       SAPE     C33      CTL2    -0.180000       12.0110           0
      3802 MEMB     33       SAPE     H3X      HAL2     0.900000E-01   1.00800           0
      3803 MEMB     33       SAPE     H3Y      HAL2     0.900000E-01   1.00800           0
      3804 MEMB     33       SAPE     C34      CTL2    -0.180000       12.0110           0
      3805 MEMB     33       SAPE     H4X      HAL2     0.900000E-01   1.00800           0
      3806 MEMB     33       SAPE     H4Y      HAL2     0.900000E-01   1.00800           0
      3807 MEMB     33       SAPE     C35      CTL2    -0.180000       12.0110           0
      3808 MEMB     33       SAPE     H5X      HAL2     0.900000E-01   1.00800           0
      3809 MEMB     33       SAPE     H5Y      HAL2     0.900000E-01   1.00800           0
      3810 MEMB     33       SAPE     C36      CTL2    -0.180000       12.0110           0
      3811 MEMB     33       SAPE     H6X      HAL2     0.900000E-01   1.00800           0
      3812 MEMB     33       SAPE     H6Y      HAL2     0.900000E-01   1.00800           0
      3813 MEMB     33       SAPE     C37      CTL2    -0.180000       12.0110           0
      3814 MEMB     33       SAPE     H7X      HAL2     0.900000E-01   1.00800           0
      3815 MEMB     33       SAPE     H7Y      HAL2     0.900000E-01   1.00800           0
      3816 MEMB     33       SAPE     C38      CTL2    -0.180000       12.0110           0
      3817 MEMB     33       SAPE     H8X      HAL2     0.900000E-01   1.00800           0
      3818 MEMB     33       SAPE     H8Y      HAL2     0.900000E-01   1.00800           0
      3819 MEMB     33       SAPE     C39      CTL2    -0.180000       12.0110           0
      3820 MEMB     33       SAPE     H9X      HAL2     0.900000E-01   1.00800           0
      3821 MEMB     33       SAPE     H9Y      HAL2     0.900000E-01   1.00800           0
      3822 MEMB     33       SAPE     C310     CTL2    -0.180000       12.0110           0
      3823 MEMB     33       SAPE     H10X     HAL2     0.900000E-01   1.00800           0
      3824 MEMB     33       SAPE     H10Y     HAL2     0.900000E-01   1.00800           0
      3825 MEMB     33       SAPE     C311     CTL2    -0.180000       12.0110           0
      3826 MEMB     33       SAPE     H11X     HAL2     0.900000E-01   1.00800           0
      3827 MEMB     33       SAPE     H11Y     HAL2     0.900000E-01   1.00800           0
      3828 MEMB     33       SAPE     C312     CTL2    -0.180000       12.0110           0
      3829 MEMB     33       SAPE     H12X     HAL2     0.900000E-01   1.00800           0
      3830 MEMB     33       SAPE     H12Y     HAL2     0.900000E-01   1.00800           0
      3831 MEMB     33       SAPE     C313     CTL2    -0.180000       12.0110           0
      3832 MEMB     33       SAPE     H13X     HAL2     0.900000E-01   1.00800           0
      3833 MEMB     33       SAPE     H13Y     HAL2     0.900000E-01   1.00800           0
      3834 MEMB     33       SAPE     C314     CTL2    -0.180000       12.0110           0
      3835 MEMB     33       SAPE     H14X     HAL2     0.900000E-01   1.00800           0
      3836 MEMB     33       SAPE     H14Y     HAL2     0.900000E-01   1.00800           0
      3837 MEMB     33       SAPE     C315     CTL2    -0.180000       12.0110           0
      3838 MEMB     33       SAPE     H15X     HAL2     0.900000E-01   1.00800           0
      3839 MEMB     33       SAPE     H15Y     HAL2     0.900000E-01   1.00800           0
      3840 MEMB     33       SAPE     C316     CTL2    -0.180000       12.0110           0
      3841 MEMB     33       SAPE     H16X     HAL2     0.900000E-01   1.00800           0
      3842 MEMB     33       SAPE     H16Y     HAL2     0.900000E-01   1.00800           0
      3843 MEMB     33       SAPE     C317     CTL2    -0.180000       12.0110           0
      3844 MEMB     33       SAPE     H17X     HAL2     0.900000E-01   1.00800           0
      3845 MEMB     33       SAPE     H17Y     HAL2     0.900000E-01   1.00800           0
      3846 MEMB     33       SAPE     C318     CTL3    -0.270000       12.0110           0
      3847 MEMB     33       SAPE     H18X     HAL3     0.900000E-01   1.00800           0
      3848 MEMB     33       SAPE     H18Y     HAL3     0.900000E-01   1.00800           0
      3849 MEMB     33       SAPE     H18Z     HAL3     0.900000E-01   1.00800           0
      3850 MEMB     34       SAPS     N        NH3L    -0.300000       14.0070           0
      3851 MEMB     34       SAPS     HN1      HCL      0.330000       1.00800           0
      3852 MEMB     34       SAPS     HN2      HCL      0.330000       1.00800           0
      3853 MEMB     34       SAPS     HN3      HCL      0.330000       1.00800           0
      3854 MEMB     34       SAPS     C12      CTL1     0.210000       12.0110           0
      3855 MEMB     34       SAPS     H12A     HBL      0.100000       1.00800           0
      3856 MEMB     34       SAPS     C13      CCL      0.340000       12.0110           0
      3857 MEMB     34       SAPS     O13A     OCL     -0.670000       15.9994           0
      3858 MEMB     34       SAPS     O13B     OCL     -0.670000       15.9994           0
      3859 MEMB     34       SAPS     C11      CTL2    -0.800000E-01   12.0110           0
      3860 MEMB     34       SAPS     H11A     HAL2     0.900000E-01   1.00800           0
      3861 MEMB     34       SAPS     H11B     HAL2     0.900000E-01   1.00800           0
      3862 MEMB     34       SAPS     P        PL        1.50000       30.9740           0
      3863 MEMB     34       SAPS     O13      O2L     -0.780000       15.9994           0
      3864 MEMB     34       SAPS     O14      O2L     -0.780000       15.9994           0
      3865 MEMB     34       SAPS     O12      OSLP    -0.570000       15.9994           0
      3866 MEMB     34       SAPS     O11      OSLP    -0.570000       15.9994           0
      3867 MEMB     34       SAPS     C1       CTL2    -0.800000E-01   12.0110           0
      3868 MEMB     34       SAPS     HA       HAL2     0.900000E-01   1.00800           0
      3869 MEMB     34       SAPS     HB       HAL2     0.900000E-01   1.00800           0
      3870 MEMB     34       SAPS     C2       CTL1     0.170000       12.0110           0
      3871 MEMB     34       SAPS     HS       HAL1     0.900000E-01   1.00800           0
      3872 MEMB     34       SAPS     O21      OSL     -0.490000       15.9994           0
      3873 MEMB     34       SAPS     C21      CL       0.900000       12.0110           0
      3874 MEMB     34       SAPS     O22      OBL     -0.630000       15.9994           0
      3875 MEMB     34       SAPS     C22      CTL2    -0.220000       12.0110           0
      3876 MEMB     34       SAPS     H2R      HAL2     0.900000E-01   1.00800           0
      3877 MEMB     34       SAPS     H2S      HAL2     0.900000E-01   1.00800           0
      3878 MEMB     34       SAPS     C3       CTL2     0.800000E-01   12.0110           0
      3879 MEMB     34       SAPS     HX       HAL2     0.900000E-01   1.00800           0
      3880 MEMB     34       SAPS     HY       HAL2     0.900000E-01   1.00800           0
      3881 MEMB     34       SAPS     O31      OSL     -0.490000       15.9994           0
      3882 MEMB     34       SAPS     C31      CL       0.900000       12.0110           0
      3883 MEMB     34       SAPS     O32      OBL     -0.630000       15.9994           0
      3884 MEMB     34       SAPS     C32      CTL2    -0.220000       12.0110           0
      3885 MEMB     34       SAPS     H2X      HAL2     0.900000E-01   1.00800           0
      3886 MEMB     34       SAPS     H2Y      HAL2     0.900000E-01   1.00800           0
      3887 MEMB     34       SAPS     C23      CTL2    -0.180000       12.0110           0
      3888 MEMB     34       SAPS     H3R      HAL2     0.900000E-01   1.00800           0
      3889 MEMB     34       SAPS     H3S      HAL2     0.900000E-01   1.00800           0
      3890 MEMB     34       SAPS     C24      CTL2    -0.180000       12.0110           0
      3891 MEMB     34       SAPS     H4R      HAL2     0.900000E-01   1.00800           0
      3892 MEMB     34       SAPS     H4S      HAL2     0.900000E-01   1.00800           0
      3893 MEMB     34       SAPS     C25      CEL1    -0.150000       12.0110           0
      3894 MEMB     34       SAPS     H5R      HEL1     0.150000       1.00800           0
      3895 MEMB     34       SAPS     C26      CEL1    -0.150000       12.0110           0
      3896 MEMB     34       SAPS     H6R      HEL1     0.150000       1.00800           0
      3897 MEMB     34       SAPS     C27      CTL2    -0.180000       12.0110           0
      3898 MEMB     34       SAPS     H7R      HAL2     0.900000E-01   1.00800           0
      3899 MEMB     34       SAPS     H7S      HAL2     0.900000E-01   1.00800           0
      3900 MEMB     34       SAPS     C28      CEL1    -0.150000       12.0110           0
      3901 MEMB     34       SAPS     H8R      HEL1     0.150000       1.00800           0
      3902 MEMB     34       SAPS     C29      CEL1    -0.150000       12.0110           0
      3903 MEMB     34       SAPS     H9R      HEL1     0.150000       1.00800           0
      3904 MEMB     34       SAPS     C210     CTL2    -0.180000       12.0110           0
      3905 MEMB     34       SAPS     H10R     HAL2     0.900000E-01   1.00800           0
      3906 MEMB     34       SAPS     H10S     HAL2     0.900000E-01   1.00800           0
      3907 MEMB     34       SAPS     C211     CEL1    -0.150000       12.0110           0
      3908 MEMB     34       SAPS     H11R     HEL1     0.150000       1.00800           0
      3909 MEMB     34       SAPS     C212     CEL1    -0.150000       12.0110           0
      3910 MEMB     34       SAPS     H12R     HEL1     0.150000       1.00800           0
      3911 MEMB     34       SAPS     C213     CTL2    -0.180000       12.0110           0
      3912 MEMB     34       SAPS     H13R     HAL2     0.900000E-01   1.00800           0
      3913 MEMB     34       SAPS     H13S     HAL2     0.900000E-01   1.00800           0
      3914 MEMB     34       SAPS     C214     CEL1    -0.150000       12.0110           0
      3915 MEMB     34       SAPS     H14R     HEL1     0.150000       1.00800           0
      3916 MEMB     34       SAPS     C215     CEL1    -0.150000       12.0110           0
      3917 MEMB     34       SAPS     H15R     HEL1     0.150000       1.00800           0
      3918 MEMB     34       SAPS     C216     CTL2    -0.180000       12.0110           0
      3919 MEMB     34       SAPS     H16R     HAL2     0.900000E-01   1.00800           0
      3920 MEMB     34       SAPS     H16S     HAL2     0.900000E-01   1.00800           0
      3921 MEMB     34       SAPS     C217     CTL2    -0.180000       12.0110           0
      3922 MEMB     34       SAPS     H17R     HAL2     0.900000E-01   1.00800           0
      3923 MEMB     34       SAPS     H17S     HAL2     0.900000E-01   1.00800           0
      3924 MEMB     34       SAPS     C218     CTL2    -0.180000       12.0110           0
      3925 MEMB     34       SAPS     H18R     HAL2     0.900000E-01   1.00800           0
      3926 MEMB     34       SAPS     H18S     HAL2     0.900000E-01   1.00800           0
      3927 MEMB     34       SAPS     C219     CTL2    -0.180000       12.0110           0
      3928 MEMB     34       SAPS     H19R     HAL2     0.900000E-01   1.00800           0
      3929 MEMB     34       SAPS     H19S     HAL2     0.900000E-01   1.00800           0
      3930 MEMB     34       SAPS     C220     CTL3    -0.270000       12.0110           0
      3931 MEMB     34       SAPS     H20R     HAL3     0.900000E-01   1.00800           0
      3932 MEMB     34       SAPS     H20S     HAL3     0.900000E-01   1.00800           0
      3933 MEMB     34       SAPS     H20T     HAL3     0.900000E-01   1.00800           0
      3934 MEMB     34       SAPS     C33      CTL2    -0.180000       12.0110           0
      3935 MEMB     34       SAPS     H3X      HAL2     0.900000E-01   1.00800           0
      3936 MEMB     34       SAPS     H3Y      HAL2     0.900000E-01   1.00800           0
      3937 MEMB     34       SAPS     C34      CTL2    -0.180000       12.0110           0
      3938 MEMB     34       SAPS     H4X      HAL2     0.900000E-01   1.00800           0
      3939 MEMB     34       SAPS     H4Y      HAL2     0.900000E-01   1.00800           0
      3940 MEMB     34       SAPS     C35      CTL2    -0.180000       12.0110           0
      3941 MEMB     34       SAPS     H5X      HAL2     0.900000E-01   1.00800           0
      3942 MEMB     34       SAPS     H5Y      HAL2     0.900000E-01   1.00800           0
      3943 MEMB     34       SAPS     C36      CTL2    -0.180000       12.0110           0
      3944 MEMB     34       SAPS     H6X      HAL2     0.900000E-01   1.00800           0
      3945 MEMB     34       SAPS     H6Y      HAL2     0.900000E-01   1.00800           0
      3946 MEMB     34       SAPS     C37      CTL2    -0.180000       12.0110           0
      3947 MEMB     34       SAPS     H7X      HAL2     0.900000E-01   1.00800           0
      3948 MEMB     34       SAPS     H7Y      HAL2     0.900000E-01   1.00800           0
      3949 MEMB     34       SAPS     C38      CTL2    -0.180000       12.0110           0
      3950 MEMB     34       SAPS     H8X      HAL2     0.900000E-01   1.00800           0
      3951 MEMB     34       SAPS     H8Y      HAL2     0.900000E-01   1.00800           0
      3952 MEMB     34       SAPS     C39      CTL2    -0.180000       12.0110           0
      3953 MEMB     34       SAPS     H9X      HAL2     0.900000E-01   1.00800           0
      3954 MEMB     34       SAPS     H9Y      HAL2     0.900000E-01   1.00800           0
      3955 MEMB     34       SAPS     C310     CTL2    -0.180000       12.0110           0
      3956 MEMB     34       SAPS     H10X     HAL2     0.900000E-01   1.00800           0
      3957 MEMB     34       SAPS     H10Y     HAL2     0.900000E-01   1.00800           0
      3958 MEMB     34       SAPS     C311     CTL2    -0.180000       12.0110           0
      3959 MEMB     34       SAPS     H11X     HAL2     0.900000E-01   1.00800           0
      3960 MEMB     34       SAPS     H11Y     HAL2     0.900000E-01   1.00800           0
      3961 MEMB     34       SAPS     C312     CTL2    -0.180000       12.0110           0
      3962 MEMB     34       SAPS     H12X     HAL2     0.900000E-01   1.00800           0
      3963 MEMB     34       SAPS     H12Y     HAL2     0.900000E-01   1.00800           0
      3964 MEMB     34       SAPS     C313     CTL2    -0.180000       12.0110           0
      3965 MEMB     34       SAPS     H13X     HAL2     0.900000E-01   1.00800           0
      3966 MEMB     34       SAPS     H13Y     HAL2     0.900000E-01   1.00800           0
      3967 MEMB     34       SAPS     C314     CTL2    -0.180000       12.0110           0
      3968 MEMB     34       SAPS     H14X     HAL2     0.900000E-01   1.00800           0
      3969 MEMB     34       SAPS     H14Y     HAL2     0.900000E-01   1.00800           0
      3970 MEMB     34       SAPS     C315     CTL2    -0.180000       12.0110           0
      3971 MEMB     34       SAPS     H15X     HAL2     0.900000E-01   1.00800           0
      3972 MEMB     34       SAPS     H15Y     HAL2     0.900000E-01   1.00800           0
      3973 MEMB     34       SAPS     C316     CTL2    -0.180000       12.0110           0
      3974 MEMB     34       SAPS     H16X     HAL2     0.900000E-01   1.00800           0
      3975 MEMB     34       SAPS     H16Y     HAL2     0.900000E-01   1.00800           0
      3976 MEMB     34       SAPS     C317     CTL2    -0.180000       12.0110           0
      3977 MEMB     34       SAPS     H17X     HAL2     0.900000E-01   1.00800           0
      3978 MEMB     34       SAPS     H17Y     HAL2     0.900000E-01   1.00800           0
      3979 MEMB     34       SAPS     C318     CTL3    -0.270000       12.0110           0
      3980 MEMB     34       SAPS     H18X     HAL3     0.900000E-01   1.00800           0
      3981 MEMB     34       SAPS     H18Y     HAL3     0.900000E-01   1.00800           0
      3982 MEMB     34       SAPS     H18Z     HAL3     0.900000E-01   1.00800           0
      3983 MEMB     35       SAPC     N        NTL     -0.600000       14.0070           0
      3984 MEMB     35       SAPC     C12      CTL2    -0.100000       12.0110           0
      3985 MEMB     35       SAPC     H12A     HL       0.250000       1.00800           0
      3986 MEMB     35       SAPC     H12B     HL       0.250000       1.00800           0
      3987 MEMB     35       SAPC     C13      CTL5    -0.350000       12.0110           0
      3988 MEMB     35       SAPC     H13A     HL       0.250000       1.00800           0
      3989 MEMB     35       SAPC     H13B     HL       0.250000       1.00800           0
      3990 MEMB     35       SAPC     H13C     HL       0.250000       1.00800           0
      3991 MEMB     35       SAPC     C14      CTL5    -0.350000       12.0110           0
      3992 MEMB     35       SAPC     H14A     HL       0.250000       1.00800           0
      3993 MEMB     35       SAPC     H14B     HL       0.250000       1.00800           0
      3994 MEMB     35       SAPC     H14C     HL       0.250000       1.00800           0
      3995 MEMB     35       SAPC     C15      CTL5    -0.350000       12.0110           0
      3996 MEMB     35       SAPC     H15A     HL       0.250000       1.00800           0
      3997 MEMB     35       SAPC     H15B     HL       0.250000       1.00800           0
      3998 MEMB     35       SAPC     H15C     HL       0.250000       1.00800           0
      3999 MEMB     35       SAPC     C11      CTL2    -0.800000E-01   12.0110           0
      4000 MEMB     35       SAPC     H11A     HAL2     0.900000E-01   1.00800           0
      4001 MEMB     35       SAPC     H11B     HAL2     0.900000E-01   1.00800           0
      4002 MEMB     35       SAPC     P        PL        1.50000       30.9740           0
      4003 MEMB     35       SAPC     O13      O2L     -0.780000       15.9994           0
      4004 MEMB     35       SAPC     O14      O2L     -0.780000       15.9994           0
      4005 MEMB     35       SAPC     O12      OSLP    -0.570000       15.9994           0
      4006 MEMB     35       SAPC     O11      OSLP    -0.570000       15.9994           0
      4007 MEMB     35       SAPC     C1       CTL2    -0.800000E-01   12.0110           0
      4008 MEMB     35       SAPC     HA       HAL2     0.900000E-01   1.00800           0
      4009 MEMB     35       SAPC     HB       HAL2     0.900000E-01   1.00800           0
      4010 MEMB     35       SAPC     C2       CTL1     0.170000       12.0110           0
      4011 MEMB     35       SAPC     HS       HAL1     0.900000E-01   1.00800           0
      4012 MEMB     35       SAPC     O21      OSL     -0.490000       15.9994           0
      4013 MEMB     35       SAPC     C21      CL       0.900000       12.0110           0
      4014 MEMB     35       SAPC     O22      OBL     -0.630000       15.9994           0
      4015 MEMB     35       SAPC     C22      CTL2    -0.220000       12.0110           0
      4016 MEMB     35       SAPC     H2R      HAL2     0.900000E-01   1.00800           0
      4017 MEMB     35       SAPC     H2S      HAL2     0.900000E-01   1.00800           0
      4018 MEMB     35       SAPC     C3       CTL2     0.800000E-01   12.0110           0
      4019 MEMB     35       SAPC     HX       HAL2     0.900000E-01   1.00800           0
      4020 MEMB     35       SAPC     HY       HAL2     0.900000E-01   1.00800           0
      4021 MEMB     35       SAPC     O31      OSL     -0.490000       15.9994           0
      4022 MEMB     35       SAPC     C31      CL       0.900000       12.0110           0
      4023 MEMB     35       SAPC     O32      OBL     -0.630000       15.9994           0
      4024 MEMB     35       SAPC     C32      CTL2    -0.220000       12.0110           0
      4025 MEMB     35       SAPC     H2X      HAL2     0.900000E-01   1.00800           0
      4026 MEMB     35       SAPC     H2Y      HAL2     0.900000E-01   1.00800           0
      4027 MEMB     35       SAPC     C23      CTL2    -0.180000       12.0110           0
      4028 MEMB     35       SAPC     H3R      HAL2     0.900000E-01   1.00800           0
      4029 MEMB     35       SAPC     H3S      HAL2     0.900000E-01   1.00800           0
      4030 MEMB     35       SAPC     C24      CTL2    -0.180000       12.0110           0
      4031 MEMB     35       SAPC     H4R      HAL2     0.900000E-01   1.00800           0
      4032 MEMB     35       SAPC     H4S      HAL2     0.900000E-01   1.00800           0
      4033 MEMB     35       SAPC     C25      CEL1    -0.150000       12.0110           0
      4034 MEMB     35       SAPC     H5R      HEL1     0.150000       1.00800           0
      4035 MEMB     35       SAPC     C26      CEL1    -0.150000       12.0110           0
      4036 MEMB     35       SAPC     H6R      HEL1     0.150000       1.00800           0
      4037 MEMB     35       SAPC     C27      CTL2    -0.180000       12.0110           0
      4038 MEMB     35       SAPC     H7R      HAL2     0.900000E-01   1.00800           0
      4039 MEMB     35       SAPC     H7S      HAL2     0.900000E-01   1.00800           0
      4040 MEMB     35       SAPC     C28      CEL1    -0.150000       12.0110           0
      4041 MEMB     35       SAPC     H8R      HEL1     0.150000       1.00800           0
      4042 MEMB     35       SAPC     C29      CEL1    -0.150000       12.0110           0
      4043 MEMB     35       SAPC     H9R      HEL1     0.150000       1.00800           0
      4044 MEMB     35       SAPC     C210     CTL2    -0.180000       12.0110           0
      4045 MEMB     35       SAPC     H10R     HAL2     0.900000E-01   1.00800           0
      4046 MEMB     35       SAPC     H10S     HAL2     0.900000E-01   1.00800           0
      4047 MEMB     35       SAPC     C211     CEL1    -0.150000       12.0110           0
      4048 MEMB     35       SAPC     H11R     HEL1     0.150000       1.00800           0
      4049 MEMB     35       SAPC     C212     CEL1    -0.150000       12.0110           0
      4050 MEMB     35       SAPC     H12R     HEL1     0.150000       1.00800           0
      4051 MEMB     35       SAPC     C213     CTL2    -0.180000       12.0110           0
      4052 MEMB     35       SAPC     H13R     HAL2     0.900000E-01   1.00800           0
      4053 MEMB     35       SAPC     H13S     HAL2     0.900000E-01   1.00800           0
      4054 MEMB     35       SAPC     C214     CEL1    -0.150000       12.0110           0
      4055 MEMB     35       SAPC     H14R     HEL1     0.150000       1.00800           0
      4056 MEMB     35       SAPC     C215     CEL1    -0.150000       12.0110           0
      4057 MEMB     35       SAPC     H15R     HEL1     0.150000       1.00800           0
      4058 MEMB     35       SAPC     C216     CTL2    -0.180000       12.0110           0
      4059 MEMB     35       SAPC     H16R     HAL2     0.900000E-01   1.00800           0
      4060 MEMB     35       SAPC     H16S     HAL2     0.900000E-01   1.00800           0
      4061 MEMB     35       SAPC     C217     CTL2    -0.180000       12.0110           0
      4062 MEMB     35       SAPC     H17R     HAL2     0.900000E-01   1.00800           0
      4063 MEMB     35       SAPC     H17S     HAL2     0.900000E-01   1.00800           0
      4064 MEMB     35       SAPC     C218     CTL2    -0.270000       12.0110           0
      4065 MEMB     35       SAPC     H18R     HAL2     0.900000E-01   1.00800           0
      4066 MEMB     35       SAPC     H18S     HAL2     0.900000E-01   1.00800           0
      4067 MEMB     35       SAPC     C219     CTL2    -0.180000       12.0110           0
      4068 MEMB     35       SAPC     H19R     HAL2     0.900000E-01   1.00800           0
      4069 MEMB     35       SAPC     H19S     HAL2     0.900000E-01   1.00800           0
      4070 MEMB     35       SAPC     C220     CTL3    -0.180000       12.0110           0
      4071 MEMB     35       SAPC     H20R     HAL3     0.900000E-01   1.00800           0
      4072 MEMB     35       SAPC     H20S     HAL3     0.900000E-01   1.00800           0
      4073 MEMB     35       SAPC     H20T     HAL3     0.900000E-01   1.00800           0
      4074 MEMB     35       SAPC     C33      CTL2    -0.180000       12.0110           0
      4075 MEMB     35       SAPC     H3X      HAL2     0.900000E-01   1.00800           0
      4076 MEMB     35       SAPC     H3Y      HAL2     0.900000E-01   1.00800           0
      4077 MEMB     35       SAPC     C34      CTL2    -0.180000       12.0110           0
      4078 MEMB     35       SAPC     H4X      HAL2     0.900000E-01   1.00800           0
      4079 MEMB     35       SAPC     H4Y      HAL2     0.900000E-01   1.00800           0
      4080 MEMB     35       SAPC     C35      CTL2    -0.180000       12.0110           0
      4081 MEMB     35       SAPC     H5X      HAL2     0.900000E-01   1.00800           0
      4082 MEMB     35       SAPC     H5Y      HAL2     0.900000E-01   1.00800           0
      4083 MEMB     35       SAPC     C36      CTL2    -0.180000       12.0110           0
      4084 MEMB     35       SAPC     H6X      HAL2     0.900000E-01   1.00800           0
      4085 MEMB     35       SAPC     H6Y      HAL2     0.900000E-01   1.00800           0
      4086 MEMB     35       SAPC     C37      CTL2    -0.180000       12.0110           0
      4087 MEMB     35       SAPC     H7X      HAL2     0.900000E-01   1.00800           0
      4088 MEMB     35       SAPC     H7Y      HAL2     0.900000E-01   1.00800           0
      4089 MEMB     35       SAPC     C38      CTL2    -0.180000       12.0110           0
      4090 MEMB     35       SAPC     H8X      HAL2     0.900000E-01   1.00800           0
      4091 MEMB     35       SAPC     H8Y      HAL2     0.900000E-01   1.00800           0
      4092 MEMB     35       SAPC     C39      CTL2    -0.180000       12.0110           0
      4093 MEMB     35       SAPC     H9X      HAL2     0.900000E-01   1.00800           0
      4094 MEMB     35       SAPC     H9Y      HAL2     0.900000E-01   1.00800           0
      4095 MEMB     35       SAPC     C310     CTL2    -0.180000       12.0110           0
      4096 MEMB     35       SAPC     H10X     HAL2     0.900000E-01   1.00800           0
      4097 MEMB     35       SAPC     H10Y     HAL2     0.900000E-01   1.00800           0
      4098 MEMB     35       SAPC     C311     CTL2    -0.180000       12.0110           0
      4099 MEMB     35       SAPC     H11X     HAL2     0.900000E-01   1.00800           0
      4100 MEMB     35       SAPC     H11Y     HAL2     0.900000E-01   1.00800           0
      4101 MEMB     35       SAPC     C312     CTL2    -0.180000       12.0110           0
      4102 MEMB     35       SAPC     H12X     HAL2     0.900000E-01   1.00800           0
      4103 MEMB     35       SAPC     H12Y     HAL2     0.900000E-01   1.00800           0
      4104 MEMB     35       SAPC     C313     CTL2    -0.180000       12.0110           0
      4105 MEMB     35       SAPC     H13X     HAL2     0.900000E-01   1.00800           0
      4106 MEMB     35       SAPC     H13Y     HAL2     0.900000E-01   1.00800           0
      4107 MEMB     35       SAPC     C314     CTL2    -0.180000       12.0110           0
      4108 MEMB     35       SAPC     H14X     HAL2     0.900000E-01   1.00800           0
      4109 MEMB     35       SAPC     H14Y     HAL2     0.900000E-01   1.00800           0
      4110 MEMB     35       SAPC     C315     CTL2    -0.180000       12.0110           0
      4111 MEMB     35       SAPC     H15X     HAL2     0.900000E-01   1.00800           0
      4112 MEMB     35       SAPC     H15Y     HAL2     0.900000E-01   1.00800           0
      4113 MEMB     35       SAPC     C316     CTL2    -0.180000       12.0110           0
      4114 MEMB     35       SAPC     H16X     HAL2     0.900000E-01   1.00800           0
      4115 MEMB     35       SAPC     H16Y     HAL2     0.900000E-01   1.00800           0
      4116 MEMB     35       SAPC     C317     CTL2    -0.180000       12.0110           0
      4117 MEMB     35       SAPC     H17X     HAL2     0.900000E-01   1.00800           0
      4118 MEMB     35       SAPC     H17Y     HAL2     0.900000E-01   1.00800           0
      4119 MEMB     35       SAPC     C318     CTL3    -0.270000       12.0110           0
      4120 MEMB     35       SAPC     H18X     HAL3     0.900000E-01   1.00800           0
      4121 MEMB     35       SAPC     H18Y     HAL3     0.900000E-01   1.00800           0
      4122 MEMB     35       SAPC     H18Z     HAL3     0.900000E-01   1.00800           0
      4123 MEMB     36       POPC     N        NTL     -0.600000       14.0070           0
      4124 MEMB     36       POPC     C12      CTL2    -0.100000       12.0110           0
      4125 MEMB     36       POPC     H12A     HL       0.250000       1.00800           0
      4126 MEMB     36       POPC     H12B     HL       0.250000       1.00800           0
      4127 MEMB     36       POPC     C13      CTL5    -0.350000       12.0110           0
      4128 MEMB     36       POPC     H13A     HL       0.250000       1.00800           0
      4129 MEMB     36       POPC     H13B     HL       0.250000       1.00800           0
      4130 MEMB     36       POPC     H13C     HL       0.250000       1.00800           0
      4131 MEMB     36       POPC     C14      CTL5    -0.350000       12.0110           0
      4132 MEMB     36       POPC     H14A     HL       0.250000       1.00800           0
      4133 MEMB     36       POPC     H14B     HL       0.250000       1.00800           0
      4134 MEMB     36       POPC     H14C     HL       0.250000       1.00800           0
      4135 MEMB     36       POPC     C15      CTL5    -0.350000       12.0110           0
      4136 MEMB     36       POPC     H15A     HL       0.250000       1.00800           0
      4137 MEMB     36       POPC     H15B     HL       0.250000       1.00800           0
      4138 MEMB     36       POPC     H15C     HL       0.250000       1.00800           0
      4139 MEMB     36       POPC     C11      CTL2    -0.800000E-01   12.0110           0
      4140 MEMB     36       POPC     H11A     HAL2     0.900000E-01   1.00800           0
      4141 MEMB     36       POPC     H11B     HAL2     0.900000E-01   1.00800           0
      4142 MEMB     36       POPC     P        PL        1.50000       30.9740           0
      4143 MEMB     36       POPC     O13      O2L     -0.780000       15.9994           0
      4144 MEMB     36       POPC     O14      O2L     -0.780000       15.9994           0
      4145 MEMB     36       POPC     O12      OSLP    -0.570000       15.9994           0
      4146 MEMB     36       POPC     O11      OSLP    -0.570000       15.9994           0
      4147 MEMB     36       POPC     C1       CTL2    -0.800000E-01   12.0110           0
      4148 MEMB     36       POPC     HA       HAL2     0.900000E-01   1.00800           0
      4149 MEMB     36       POPC     HB       HAL2     0.900000E-01   1.00800           0
      4150 MEMB     36       POPC     C2       CTL1     0.170000       12.0110           0
      4151 MEMB     36       POPC     HS       HAL1     0.900000E-01   1.00800           0
      4152 MEMB     36       POPC     O21      OSL     -0.490000       15.9994           0
      4153 MEMB     36       POPC     C21      CL       0.900000       12.0110           0
      4154 MEMB     36       POPC     O22      OBL     -0.630000       15.9994           0
      4155 MEMB     36       POPC     C22      CTL2    -0.220000       12.0110           0
      4156 MEMB     36       POPC     H2R      HAL2     0.900000E-01   1.00800           0
      4157 MEMB     36       POPC     H2S      HAL2     0.900000E-01   1.00800           0
      4158 MEMB     36       POPC     C3       CTL2     0.800000E-01   12.0110           0
      4159 MEMB     36       POPC     HX       HAL2     0.900000E-01   1.00800           0
      4160 MEMB     36       POPC     HY       HAL2     0.900000E-01   1.00800           0
      4161 MEMB     36       POPC     O31      OSL     -0.490000       15.9994           0
      4162 MEMB     36       POPC     C31      CL       0.900000       12.0110           0
      4163 MEMB     36       POPC     O32      OBL     -0.630000       15.9994           0
      4164 MEMB     36       POPC     C32      CTL2    -0.220000       12.0110           0
      4165 MEMB     36       POPC     H2X      HAL2     0.900000E-01   1.00800           0
      4166 MEMB     36       POPC     H2Y      HAL2     0.900000E-01   1.00800           0
      4167 MEMB     36       POPC     C23      CTL2    -0.180000       12.0110           0
      4168 MEMB     36       POPC     H3R      HAL2     0.900000E-01   1.00800           0
      4169 MEMB     36       POPC     H3S      HAL2     0.900000E-01   1.00800           0
      4170 MEMB     36       POPC     C24      CTL2    -0.180000       12.0110           0
      4171 MEMB     36       POPC     H4R      HAL2     0.900000E-01   1.00800           0
      4172 MEMB     36       POPC     H4S      HAL2     0.900000E-01   1.00800           0
      4173 MEMB     36       POPC     C25      CTL2    -0.180000       12.0110           0
      4174 MEMB     36       POPC     H5R      HAL2     0.900000E-01   1.00800           0
      4175 MEMB     36       POPC     H5S      HAL2     0.900000E-01   1.00800           0
      4176 MEMB     36       POPC     C26      CTL2    -0.180000       12.0110           0
      4177 MEMB     36       POPC     H6R      HAL2     0.900000E-01   1.00800           0
      4178 MEMB     36       POPC     H6S      HAL2     0.900000E-01   1.00800           0
      4179 MEMB     36       POPC     C27      CTL2    -0.180000       12.0110           0
      4180 MEMB     36       POPC     H7R      HAL2     0.900000E-01   1.00800           0
      4181 MEMB     36       POPC     H7S      HAL2     0.900000E-01   1.00800           0
      4182 MEMB     36       POPC     C28      CTL2    -0.180000       12.0110           0
      4183 MEMB     36       POPC     H8R      HAL2     0.900000E-01   1.00800           0
      4184 MEMB     36       POPC     H8S      HAL2     0.900000E-01   1.00800           0
      4185 MEMB     36       POPC     C29      CEL1    -0.150000       12.0110           0
      4186 MEMB     36       POPC     H91      HEL1     0.150000       1.00800           0
      4187 MEMB     36       POPC     C210     CEL1    -0.150000       12.0110           0
      4188 MEMB     36       POPC     H101     HEL1     0.150000       1.00800           0
      4189 MEMB     36       POPC     C211     CTL2    -0.180000       12.0110           0
      4190 MEMB     36       POPC     H11R     HAL2     0.900000E-01   1.00800           0
      4191 MEMB     36       POPC     H11S     HAL2     0.900000E-01   1.00800           0
      4192 MEMB     36       POPC     C212     CTL2    -0.180000       12.0110           0
      4193 MEMB     36       POPC     H12R     HAL2     0.900000E-01   1.00800           0
      4194 MEMB     36       POPC     H12S     HAL2     0.900000E-01   1.00800           0
      4195 MEMB     36       POPC     C213     CTL2    -0.180000       12.0110           0
      4196 MEMB     36       POPC     H13R     HAL2     0.900000E-01   1.00800           0
      4197 MEMB     36       POPC     H13S     HAL2     0.900000E-01   1.00800           0
      4198 MEMB     36       POPC     C214     CTL2    -0.180000       12.0110           0
      4199 MEMB     36       POPC     H14R     HAL2     0.900000E-01   1.00800           0
      4200 MEMB     36       POPC     H14S     HAL2     0.900000E-01   1.00800           0
      4201 MEMB     36       POPC     C215     CTL2    -0.180000       12.0110           0
      4202 MEMB     36       POPC     H15R     HAL2     0.900000E-01   1.00800           0
      4203 MEMB     36       POPC     H15S     HAL2     0.900000E-01   1.00800           0
      4204 MEMB     36       POPC     C216     CTL2    -0.180000       12.0110           0
      4205 MEMB     36       POPC     H16R     HAL2     0.900000E-01   1.00800           0
      4206 MEMB     36       POPC     H16S     HAL2     0.900000E-01   1.00800           0
      4207 MEMB     36       POPC     C217     CTL2    -0.180000       12.0110           0
      4208 MEMB     36       POPC     H17R     HAL2     0.900000E-01   1.00800           0
      4209 MEMB     36       POPC     H17S     HAL2     0.900000E-01   1.00800           0
      4210 MEMB     36       POPC     C218     CTL3    -0.270000       12.0110           0
      4211 MEMB     36       POPC     H18R     HAL3     0.900000E-01   1.00800           0
      4212 MEMB     36       POPC     H18S     HAL3     0.900000E-01   1.00800           0
      4213 MEMB     36       POPC     H18T     HAL3     0.900000E-01   1.00800           0
      4214 MEMB     36       POPC     C33      CTL2    -0.180000       12.0110           0
      4215 MEMB     36       POPC     H3X      HAL2     0.900000E-01   1.00800           0
      4216 MEMB     36       POPC     H3Y      HAL2     0.900000E-01   1.00800           0
      4217 MEMB     36       POPC     C34      CTL2    -0.180000       12.0110           0
      4218 MEMB     36       POPC     H4X      HAL2     0.900000E-01   1.00800           0
      4219 MEMB     36       POPC     H4Y      HAL2     0.900000E-01   1.00800           0
      4220 MEMB     36       POPC     C35      CTL2    -0.180000       12.0110           0
      4221 MEMB     36       POPC     H5X      HAL2     0.900000E-01   1.00800           0
      4222 MEMB     36       POPC     H5Y      HAL2     0.900000E-01   1.00800           0
      4223 MEMB     36       POPC     C36      CTL2    -0.180000       12.0110           0
      4224 MEMB     36       POPC     H6X      HAL2     0.900000E-01   1.00800           0
      4225 MEMB     36       POPC     H6Y      HAL2     0.900000E-01   1.00800           0
      4226 MEMB     36       POPC     C37      CTL2    -0.180000       12.0110           0
      4227 MEMB     36       POPC     H7X      HAL2     0.900000E-01   1.00800           0
      4228 MEMB     36       POPC     H7Y      HAL2     0.900000E-01   1.00800           0
      4229 MEMB     36       POPC     C38      CTL2    -0.180000       12.0110           0
      4230 MEMB     36       POPC     H8X      HAL2     0.900000E-01   1.00800           0
      4231 MEMB     36       POPC     H8Y      HAL2     0.900000E-01   1.00800           0
      4232 MEMB     36       POPC     C39      CTL2    -0.180000       12.0110           0
      4233 MEMB     36       POPC     H9X      HAL2     0.900000E-01   1.00800           0
      4234 MEMB     36       POPC     H9Y      HAL2     0.900000E-01   1.00800           0
      4235 MEMB     36       POPC     C310     CTL2    -0.180000       12.0110           0
      4236 MEMB     36       POPC     H10X     HAL2     0.900000E-01   1.00800           0
      4237 MEMB     36       POPC     H10Y     HAL2     0.900000E-01   1.00800           0
      4238 MEMB     36       POPC     C311     CTL2    -0.180000       12.0110           0
      4239 MEMB     36       POPC     H11X     HAL2     0.900000E-01   1.00800           0
      4240 MEMB     36       POPC     H11Y     HAL2     0.900000E-01   1.00800           0
      4241 MEMB     36       POPC     C312     CTL2    -0.180000       12.0110           0
      4242 MEMB     36       POPC     H12X     HAL2     0.900000E-01   1.00800           0
      4243 MEMB     36       POPC     H12Y     HAL2     0.900000E-01   1.00800           0
      4244 MEMB     36       POPC     C313     CTL2    -0.180000       12.0110           0
      4245 MEMB     36       POPC     H13X     HAL2     0.900000E-01   1.00800           0
      4246 MEMB     36       POPC     H13Y     HAL2     0.900000E-01   1.00800           0
      4247 MEMB     36       POPC     C314     CTL2    -0.180000       12.0110           0
      4248 MEMB     36       POPC     H14X     HAL2     0.900000E-01   1.00800           0
      4249 MEMB     36       POPC     H14Y     HAL2     0.900000E-01   1.00800           0
      4250 MEMB     36       POPC     C315     CTL2    -0.180000       12.0110           0
      4251 MEMB     36       POPC     H15X     HAL2     0.900000E-01   1.00800           0
      4252 MEMB     36       POPC     H15Y     HAL2     0.900000E-01   1.00800           0
      4253 MEMB     36       POPC     C316     CTL3    -0.270000       12.0110           0
      4254 MEMB     36       POPC     H16X     HAL3     0.900000E-01   1.00800           0
      4255 MEMB     36       POPC     H16Y     HAL3     0.900000E-01   1.00800           0
      4256 MEMB     36       POPC     H16Z     HAL3     0.900000E-01   1.00800           0
      4257 MEMB     37       SAPE     N        NH3L    -0.300000       14.0070           0
      4258 MEMB     37       SAPE     HN1      HCL      0.330000       1.00800           0
      4259 MEMB     37       SAPE     HN2      HCL      0.330000       1.00800           0
      4260 MEMB     37       SAPE     HN3      HCL      0.330000       1.00800           0
      4261 MEMB     37       SAPE     C12      CTL2     0.130000       12.0110           0
      4262 MEMB     37       SAPE     H12A     HAL2     0.900000E-01   1.00800           0
      4263 MEMB     37       SAPE     H12B     HAL2     0.900000E-01   1.00800           0
      4264 MEMB     37       SAPE     C11      CTL2    -0.800000E-01   12.0110           0
      4265 MEMB     37       SAPE     H11A     HAL2     0.900000E-01   1.00800           0
      4266 MEMB     37       SAPE     H11B     HAL2     0.900000E-01   1.00800           0
      4267 MEMB     37       SAPE     P        PL        1.50000       30.9740           0
      4268 MEMB     37       SAPE     O13      O2L     -0.780000       15.9994           0
      4269 MEMB     37       SAPE     O14      O2L     -0.780000       15.9994           0
      4270 MEMB     37       SAPE     O12      OSLP    -0.570000       15.9994           0
      4271 MEMB     37       SAPE     O11      OSLP    -0.570000       15.9994           0
      4272 MEMB     37       SAPE     C1       CTL2    -0.800000E-01   12.0110           0
      4273 MEMB     37       SAPE     HA       HAL2     0.900000E-01   1.00800           0
      4274 MEMB     37       SAPE     HB       HAL2     0.900000E-01   1.00800           0
      4275 MEMB     37       SAPE     C2       CTL1     0.170000       12.0110           0
      4276 MEMB     37       SAPE     HS       HAL1     0.900000E-01   1.00800           0
      4277 MEMB     37       SAPE     O21      OSL     -0.490000       15.9994           0
      4278 MEMB     37       SAPE     C21      CL       0.900000       12.0110           0
      4279 MEMB     37       SAPE     O22      OBL     -0.630000       15.9994           0
      4280 MEMB     37       SAPE     C22      CTL2    -0.220000       12.0110           0
      4281 MEMB     37       SAPE     H2R      HAL2     0.900000E-01   1.00800           0
      4282 MEMB     37       SAPE     H2S      HAL2     0.900000E-01   1.00800           0
      4283 MEMB     37       SAPE     C3       CTL2     0.800000E-01   12.0110           0
      4284 MEMB     37       SAPE     HX       HAL2     0.900000E-01   1.00800           0
      4285 MEMB     37       SAPE     HY       HAL2     0.900000E-01   1.00800           0
      4286 MEMB     37       SAPE     O31      OSL     -0.490000       15.9994           0
      4287 MEMB     37       SAPE     C31      CL       0.900000       12.0110           0
      4288 MEMB     37       SAPE     O32      OBL     -0.630000       15.9994           0
      4289 MEMB     37       SAPE     C32      CTL2    -0.220000       12.0110           0
      4290 MEMB     37       SAPE     H2X      HAL2     0.900000E-01   1.00800           0
      4291 MEMB     37       SAPE     H2Y      HAL2     0.900000E-01   1.00800           0
      4292 MEMB     37       SAPE     C23      CTL2    -0.180000       12.0110           0
      4293 MEMB     37       SAPE     H3R      HAL2     0.900000E-01   1.00800           0
      4294 MEMB     37       SAPE     H3S      HAL2     0.900000E-01   1.00800           0
      4295 MEMB     37       SAPE     C24      CTL2    -0.180000       12.0110           0
      4296 MEMB     37       SAPE     H4R      HAL2     0.900000E-01   1.00800           0
      4297 MEMB     37       SAPE     H4S      HAL2     0.900000E-01   1.00800           0
      4298 MEMB     37       SAPE     C25      CEL1    -0.150000       12.0110           0
      4299 MEMB     37       SAPE     H5R      HEL1     0.150000       1.00800           0
      4300 MEMB     37       SAPE     C26      CEL1    -0.150000       12.0110           0
      4301 MEMB     37       SAPE     H6R      HEL1     0.150000       1.00800           0
      4302 MEMB     37       SAPE     C27      CTL2    -0.180000       12.0110           0
      4303 MEMB     37       SAPE     H7R      HAL2     0.900000E-01   1.00800           0
      4304 MEMB     37       SAPE     H7S      HAL2     0.900000E-01   1.00800           0
      4305 MEMB     37       SAPE     C28      CEL1    -0.150000       12.0110           0
      4306 MEMB     37       SAPE     H8R      HEL1     0.150000       1.00800           0
      4307 MEMB     37       SAPE     C29      CEL1    -0.150000       12.0110           0
      4308 MEMB     37       SAPE     H9R      HEL1     0.150000       1.00800           0
      4309 MEMB     37       SAPE     C210     CTL2    -0.180000       12.0110           0
      4310 MEMB     37       SAPE     H10R     HAL2     0.900000E-01   1.00800           0
      4311 MEMB     37       SAPE     H10S     HAL2     0.900000E-01   1.00800           0
      4312 MEMB     37       SAPE     C211     CEL1    -0.150000       12.0110           0
      4313 MEMB     37       SAPE     H11R     HEL1     0.150000       1.00800           0
      4314 MEMB     37       SAPE     C212     CEL1    -0.150000       12.0110           0
      4315 MEMB     37       SAPE     H12R     HEL1     0.150000       1.00800           0
      4316 MEMB     37       SAPE     C213     CTL2    -0.180000       12.0110           0
      4317 MEMB     37       SAPE     H13R     HAL2     0.900000E-01   1.00800           0
      4318 MEMB     37       SAPE     H13S     HAL2     0.900000E-01   1.00800           0
      4319 MEMB     37       SAPE     C214     CEL1    -0.150000       12.0110           0
      4320 MEMB     37       SAPE     H14R     HEL1     0.150000       1.00800           0
      4321 MEMB     37       SAPE     C215     CEL1    -0.150000       12.0110           0
      4322 MEMB     37       SAPE     H15R     HEL1     0.150000       1.00800           0
      4323 MEMB     37       SAPE     C216     CTL2    -0.180000       12.0110           0
      4324 MEMB     37       SAPE     H16R     HAL2     0.900000E-01   1.00800           0
      4325 MEMB     37       SAPE     H16S     HAL2     0.900000E-01   1.00800           0
      4326 MEMB     37       SAPE     C217     CTL2    -0.180000       12.0110           0
      4327 MEMB     37       SAPE     H17R     HAL2     0.900000E-01   1.00800           0
      4328 MEMB     37       SAPE     H17S     HAL2     0.900000E-01   1.00800           0
      4329 MEMB     37       SAPE     C218     CTL2    -0.180000       12.0110           0
      4330 MEMB     37       SAPE     H18R     HAL2     0.900000E-01   1.00800           0
      4331 MEMB     37       SAPE     H18S     HAL2     0.900000E-01   1.00800           0
      4332 MEMB     37       SAPE     C219     CTL2    -0.180000       12.0110           0
      4333 MEMB     37       SAPE     H19R     HAL2     0.900000E-01   1.00800           0
      4334 MEMB     37       SAPE     H19S     HAL2     0.900000E-01   1.00800           0
      4335 MEMB     37       SAPE     C220     CTL3    -0.270000       12.0110           0
      4336 MEMB     37       SAPE     H20R     HAL3     0.900000E-01   1.00800           0
      4337 MEMB     37       SAPE     H20S     HAL3     0.900000E-01   1.00800           0
      4338 MEMB     37       SAPE     H20T     HAL3     0.900000E-01   1.00800           0
      4339 MEMB     37       SAPE     C33      CTL2    -0.180000       12.0110           0
      4340 MEMB     37       SAPE     H3X      HAL2     0.900000E-01   1.00800           0
      4341 MEMB     37       SAPE     H3Y      HAL2     0.900000E-01   1.00800           0
      4342 MEMB     37       SAPE     C34      CTL2    -0.180000       12.0110           0
      4343 MEMB     37       SAPE     H4X      HAL2     0.900000E-01   1.00800           0
      4344 MEMB     37       SAPE     H4Y      HAL2     0.900000E-01   1.00800           0
      4345 MEMB     37       SAPE     C35      CTL2    -0.180000       12.0110           0
      4346 MEMB     37       SAPE     H5X      HAL2     0.900000E-01   1.00800           0
      4347 MEMB     37       SAPE     H5Y      HAL2     0.900000E-01   1.00800           0
      4348 MEMB     37       SAPE     C36      CTL2    -0.180000       12.0110           0
      4349 MEMB     37       SAPE     H6X      HAL2     0.900000E-01   1.00800           0
      4350 MEMB     37       SAPE     H6Y      HAL2     0.900000E-01   1.00800           0
      4351 MEMB     37       SAPE     C37      CTL2    -0.180000       12.0110           0
      4352 MEMB     37       SAPE     H7X      HAL2     0.900000E-01   1.00800           0
      4353 MEMB     37       SAPE     H7Y      HAL2     0.900000E-01   1.00800           0
      4354 MEMB     37       SAPE     C38      CTL2    -0.180000       12.0110           0
      4355 MEMB     37       SAPE     H8X      HAL2     0.900000E-01   1.00800           0
      4356 MEMB     37       SAPE     H8Y      HAL2     0.900000E-01   1.00800           0
      4357 MEMB     37       SAPE     C39      CTL2    -0.180000       12.0110           0
      4358 MEMB     37       SAPE     H9X      HAL2     0.900000E-01   1.00800           0
      4359 MEMB     37       SAPE     H9Y      HAL2     0.900000E-01   1.00800           0
      4360 MEMB     37       SAPE     C310     CTL2    -0.180000       12.0110           0
      4361 MEMB     37       SAPE     H10X     HAL2     0.900000E-01   1.00800           0
      4362 MEMB     37       SAPE     H10Y     HAL2     0.900000E-01   1.00800           0
      4363 MEMB     37       SAPE     C311     CTL2    -0.180000       12.0110           0
      4364 MEMB     37       SAPE     H11X     HAL2     0.900000E-01   1.00800           0
      4365 MEMB     37       SAPE     H11Y     HAL2     0.900000E-01   1.00800           0
      4366 MEMB     37       SAPE     C312     CTL2    -0.180000       12.0110           0
      4367 MEMB     37       SAPE     H12X     HAL2     0.900000E-01   1.00800           0
      4368 MEMB     37       SAPE     H12Y     HAL2     0.900000E-01   1.00800           0
      4369 MEMB     37       SAPE     C313     CTL2    -0.180000       12.0110           0
      4370 MEMB     37       SAPE     H13X     HAL2     0.900000E-01   1.00800           0
      4371 MEMB     37       SAPE     H13Y     HAL2     0.900000E-01   1.00800           0
      4372 MEMB     37       SAPE     C314     CTL2    -0.180000       12.0110           0
      4373 MEMB     37       SAPE     H14X     HAL2     0.900000E-01   1.00800           0
      4374 MEMB     37       SAPE     H14Y     HAL2     0.900000E-01   1.00800           0
      4375 MEMB     37       SAPE     C315     CTL2    -0.180000       12.0110           0
      4376 MEMB     37       SAPE     H15X     HAL2     0.900000E-01   1.00800           0
      4377 MEMB     37       SAPE     H15Y     HAL2     0.900000E-01   1.00800           0
      4378 MEMB     37       SAPE     C316     CTL2    -0.180000       12.0110           0
      4379 MEMB     37       SAPE     H16X     HAL2     0.900000E-01   1.00800           0
      4380 MEMB     37       SAPE     H16Y     HAL2     0.900000E-01   1.00800           0
      4381 MEMB     37       SAPE     C317     CTL2    -0.180000       12.0110           0
      4382 MEMB     37       SAPE     H17X     HAL2     0.900000E-01   1.00800           0
      4383 MEMB     37       SAPE     H17Y     HAL2     0.900000E-01   1.00800           0
      4384 MEMB     37       SAPE     C318     CTL3    -0.270000       12.0110           0
      4385 MEMB     37       SAPE     H18X     HAL3     0.900000E-01   1.00800           0
      4386 MEMB     37       SAPE     H18Y     HAL3     0.900000E-01   1.00800           0
      4387 MEMB     37       SAPE     H18Z     HAL3     0.900000E-01   1.00800           0
      4388 MEMB     38       SOPE     N        NH3L    -0.300000       14.0070           0
      4389 MEMB     38       SOPE     HN1      HCL      0.330000       1.00800           0
      4390 MEMB     38       SOPE     HN2      HCL      0.330000       1.00800           0
      4391 MEMB     38       SOPE     HN3      HCL      0.330000       1.00800           0
      4392 MEMB     38       SOPE     C12      CTL2     0.130000       12.0110           0
      4393 MEMB     38       SOPE     H12A     HAL2     0.900000E-01   1.00800           0
      4394 MEMB     38       SOPE     H12B     HAL2     0.900000E-01   1.00800           0
      4395 MEMB     38       SOPE     C11      CTL2    -0.800000E-01   12.0110           0
      4396 MEMB     38       SOPE     H11A     HAL2     0.900000E-01   1.00800           0
      4397 MEMB     38       SOPE     H11B     HAL2     0.900000E-01   1.00800           0
      4398 MEMB     38       SOPE     P        PL        1.50000       30.9740           0
      4399 MEMB     38       SOPE     O13      O2L     -0.780000       15.9994           0
      4400 MEMB     38       SOPE     O14      O2L     -0.780000       15.9994           0
      4401 MEMB     38       SOPE     O12      OSLP    -0.570000       15.9994           0
      4402 MEMB     38       SOPE     O11      OSLP    -0.570000       15.9994           0
      4403 MEMB     38       SOPE     C1       CTL2    -0.800000E-01   12.0110           0
      4404 MEMB     38       SOPE     HA       HAL2     0.900000E-01   1.00800           0
      4405 MEMB     38       SOPE     HB       HAL2     0.900000E-01   1.00800           0
      4406 MEMB     38       SOPE     C2       CTL1     0.170000       12.0110           0
      4407 MEMB     38       SOPE     HS       HAL1     0.900000E-01   1.00800           0
      4408 MEMB     38       SOPE     O21      OSL     -0.490000       15.9994           0
      4409 MEMB     38       SOPE     C21      CL       0.900000       12.0110           0
      4410 MEMB     38       SOPE     O22      OBL     -0.630000       15.9994           0
      4411 MEMB     38       SOPE     C22      CTL2    -0.220000       12.0110           0
      4412 MEMB     38       SOPE     H2R      HAL2     0.900000E-01   1.00800           0
      4413 MEMB     38       SOPE     H2S      HAL2     0.900000E-01   1.00800           0
      4414 MEMB     38       SOPE     C3       CTL2     0.800000E-01   12.0110           0
      4415 MEMB     38       SOPE     HX       HAL2     0.900000E-01   1.00800           0
      4416 MEMB     38       SOPE     HY       HAL2     0.900000E-01   1.00800           0
      4417 MEMB     38       SOPE     O31      OSL     -0.490000       15.9994           0
      4418 MEMB     38       SOPE     C31      CL       0.900000       12.0110           0
      4419 MEMB     38       SOPE     O32      OBL     -0.630000       15.9994           0
      4420 MEMB     38       SOPE     C32      CTL2    -0.220000       12.0110           0
      4421 MEMB     38       SOPE     H2X      HAL2     0.900000E-01   1.00800           0
      4422 MEMB     38       SOPE     H2Y      HAL2     0.900000E-01   1.00800           0
      4423 MEMB     38       SOPE     C23      CTL2    -0.180000       12.0110           0
      4424 MEMB     38       SOPE     H3R      HAL2     0.900000E-01   1.00800           0
      4425 MEMB     38       SOPE     H3S      HAL2     0.900000E-01   1.00800           0
      4426 MEMB     38       SOPE     C24      CTL2    -0.180000       12.0110           0
      4427 MEMB     38       SOPE     H4R      HAL2     0.900000E-01   1.00800           0
      4428 MEMB     38       SOPE     H4S      HAL2     0.900000E-01   1.00800           0
      4429 MEMB     38       SOPE     C25      CTL2    -0.180000       12.0110           0
      4430 MEMB     38       SOPE     H5R      HAL2     0.900000E-01   1.00800           0
      4431 MEMB     38       SOPE     H5S      HAL2     0.900000E-01   1.00800           0
      4432 MEMB     38       SOPE     C26      CTL2    -0.180000       12.0110           0
      4433 MEMB     38       SOPE     H6R      HAL2     0.900000E-01   1.00800           0
      4434 MEMB     38       SOPE     H6S      HAL2     0.900000E-01   1.00800           0
      4435 MEMB     38       SOPE     C27      CTL2    -0.180000       12.0110           0
      4436 MEMB     38       SOPE     H7R      HAL2     0.900000E-01   1.00800           0
      4437 MEMB     38       SOPE     H7S      HAL2     0.900000E-01   1.00800           0
      4438 MEMB     38       SOPE     C28      CTL2    -0.180000       12.0110           0
      4439 MEMB     38       SOPE     H8R      HAL2     0.900000E-01   1.00800           0
      4440 MEMB     38       SOPE     H8S      HAL2     0.900000E-01   1.00800           0
      4441 MEMB     38       SOPE     C29      CEL1    -0.150000       12.0110           0
      4442 MEMB     38       SOPE     H91      HEL1     0.150000       1.00800           0
      4443 MEMB     38       SOPE     C210     CEL1    -0.150000       12.0110           0
      4444 MEMB     38       SOPE     H101     HEL1     0.150000       1.00800           0
      4445 MEMB     38       SOPE     C211     CTL2    -0.180000       12.0110           0
      4446 MEMB     38       SOPE     H11R     HAL2     0.900000E-01   1.00800           0
      4447 MEMB     38       SOPE     H11S     HAL2     0.900000E-01   1.00800           0
      4448 MEMB     38       SOPE     C212     CTL2    -0.180000       12.0110           0
      4449 MEMB     38       SOPE     H12R     HAL2     0.900000E-01   1.00800           0
      4450 MEMB     38       SOPE     H12S     HAL2     0.900000E-01   1.00800           0
      4451 MEMB     38       SOPE     C213     CTL2    -0.180000       12.0110           0
      4452 MEMB     38       SOPE     H13R     HAL2     0.900000E-01   1.00800           0
      4453 MEMB     38       SOPE     H13S     HAL2     0.900000E-01   1.00800           0
      4454 MEMB     38       SOPE     C214     CTL2    -0.180000       12.0110           0
      4455 MEMB     38       SOPE     H14R     HAL2     0.900000E-01   1.00800           0
      4456 MEMB     38       SOPE     H14S     HAL2     0.900000E-01   1.00800           0
      4457 MEMB     38       SOPE     C215     CTL2    -0.180000       12.0110           0
      4458 MEMB     38       SOPE     H15R     HAL2     0.900000E-01   1.00800           0
      4459 MEMB     38       SOPE     H15S     HAL2     0.900000E-01   1.00800           0
      4460 MEMB     38       SOPE     C216     CTL2    -0.180000       12.0110           0
      4461 MEMB     38       SOPE     H16R     HAL2     0.900000E-01   1.00800           0
      4462 MEMB     38       SOPE     H16S     HAL2     0.900000E-01   1.00800           0
      4463 MEMB     38       SOPE     C217     CTL2    -0.180000       12.0110           0
      4464 MEMB     38       SOPE     H17R     HAL2     0.900000E-01   1.00800           0
      4465 MEMB     38       SOPE     H17S     HAL2     0.900000E-01   1.00800           0
      4466 MEMB     38       SOPE     C218     CTL3    -0.270000       12.0110           0
      4467 MEMB     38       SOPE     H18R     HAL3     0.900000E-01   1.00800           0
      4468 MEMB     38       SOPE     H18S     HAL3     0.900000E-01   1.00800           0
      4469 MEMB     38       SOPE     H18T     HAL3     0.900000E-01   1.00800           0
      4470 MEMB     38       SOPE     C33      CTL2    -0.180000       12.0110           0
      4471 MEMB     38       SOPE     H3X      HAL2     0.900000E-01   1.00800           0
      4472 MEMB     38       SOPE     H3Y      HAL2     0.900000E-01   1.00800           0
      4473 MEMB     38       SOPE     C34      CTL2    -0.180000       12.0110           0
      4474 MEMB     38       SOPE     H4X      HAL2     0.900000E-01   1.00800           0
      4475 MEMB     38       SOPE     H4Y      HAL2     0.900000E-01   1.00800           0
      4476 MEMB     38       SOPE     C35      CTL2    -0.180000       12.0110           0
      4477 MEMB     38       SOPE     H5X      HAL2     0.900000E-01   1.00800           0
      4478 MEMB     38       SOPE     H5Y      HAL2     0.900000E-01   1.00800           0
      4479 MEMB     38       SOPE     C36      CTL2    -0.180000       12.0110           0
      4480 MEMB     38       SOPE     H6X      HAL2     0.900000E-01   1.00800           0
      4481 MEMB     38       SOPE     H6Y      HAL2     0.900000E-01   1.00800           0
      4482 MEMB     38       SOPE     C37      CTL2    -0.180000       12.0110           0
      4483 MEMB     38       SOPE     H7X      HAL2     0.900000E-01   1.00800           0
      4484 MEMB     38       SOPE     H7Y      HAL2     0.900000E-01   1.00800           0
      4485 MEMB     38       SOPE     C38      CTL2    -0.180000       12.0110           0
      4486 MEMB     38       SOPE     H8X      HAL2     0.900000E-01   1.00800           0
      4487 MEMB     38       SOPE     H8Y      HAL2     0.900000E-01   1.00800           0
      4488 MEMB     38       SOPE     C39      CTL2    -0.180000       12.0110           0
      4489 MEMB     38       SOPE     H9X      HAL2     0.900000E-01   1.00800           0
      4490 MEMB     38       SOPE     H9Y      HAL2     0.900000E-01   1.00800           0
      4491 MEMB     38       SOPE     C310     CTL2    -0.180000       12.0110           0
      4492 MEMB     38       SOPE     H10X     HAL2     0.900000E-01   1.00800           0
      4493 MEMB     38       SOPE     H10Y     HAL2     0.900000E-01   1.00800           0
      4494 MEMB     38       SOPE     C311     CTL2    -0.180000       12.0110           0
      4495 MEMB     38       SOPE     H11X     HAL2     0.900000E-01   1.00800           0
      4496 MEMB     38       SOPE     H11Y     HAL2     0.900000E-01   1.00800           0
      4497 MEMB     38       SOPE     C312     CTL2    -0.180000       12.0110           0
      4498 MEMB     38       SOPE     H12X     HAL2     0.900000E-01   1.00800           0
      4499 MEMB     38       SOPE     H12Y     HAL2     0.900000E-01   1.00800           0
      4500 MEMB     38       SOPE     C313     CTL2    -0.180000       12.0110           0
      4501 MEMB     38       SOPE     H13X     HAL2     0.900000E-01   1.00800           0
      4502 MEMB     38       SOPE     H13Y     HAL2     0.900000E-01   1.00800           0
      4503 MEMB     38       SOPE     C314     CTL2    -0.180000       12.0110           0
      4504 MEMB     38       SOPE     H14X     HAL2     0.900000E-01   1.00800           0
      4505 MEMB     38       SOPE     H14Y     HAL2     0.900000E-01   1.00800           0
      4506 MEMB     38       SOPE     C315     CTL2    -0.180000       12.0110           0
      4507 MEMB     38       SOPE     H15X     HAL2     0.900000E-01   1.00800           0
      4508 MEMB     38       SOPE     H15Y     HAL2     0.900000E-01   1.00800           0
      4509 MEMB     38       SOPE     C316     CTL2    -0.180000       12.0110           0
      4510 MEMB     38       SOPE     H16X     HAL2     0.900000E-01   1.00800           0
      4511 MEMB     38       SOPE     H16Y     HAL2     0.900000E-01   1.00800           0
      4512 MEMB     38       SOPE     C317     CTL2    -0.180000       12.0110           0
      4513 MEMB     38       SOPE     H17X     HAL2     0.900000E-01   1.00800           0
      4514 MEMB     38       SOPE     H17Y     HAL2     0.900000E-01   1.00800           0
      4515 MEMB     38       SOPE     C318     CTL3    -0.270000       12.0110           0
      4516 MEMB     38       SOPE     H18X     HAL3     0.900000E-01   1.00800           0
      4517 MEMB     38       SOPE     H18Y     HAL3     0.900000E-01   1.00800           0
      4518 MEMB     38       SOPE     H18Z     HAL3     0.900000E-01   1.00800           0
      4519 MEMB     39       SAPS     N        NH3L    -0.300000       14.0070           0
      4520 MEMB     39       SAPS     HN1      HCL      0.330000       1.00800           0
      4521 MEMB     39       SAPS     HN2      HCL      0.330000       1.00800           0
      4522 MEMB     39       SAPS     HN3      HCL      0.330000       1.00800           0
      4523 MEMB     39       SAPS     C12      CTL1     0.210000       12.0110           0
      4524 MEMB     39       SAPS     H12A     HBL      0.100000       1.00800           0
      4525 MEMB     39       SAPS     C13      CCL      0.340000       12.0110           0
      4526 MEMB     39       SAPS     O13A     OCL     -0.670000       15.9994           0
      4527 MEMB     39       SAPS     O13B     OCL     -0.670000       15.9994           0
      4528 MEMB     39       SAPS     C11      CTL2    -0.800000E-01   12.0110           0
      4529 MEMB     39       SAPS     H11A     HAL2     0.900000E-01   1.00800           0
      4530 MEMB     39       SAPS     H11B     HAL2     0.900000E-01   1.00800           0
      4531 MEMB     39       SAPS     P        PL        1.50000       30.9740           0
      4532 MEMB     39       SAPS     O13      O2L     -0.780000       15.9994           0
      4533 MEMB     39       SAPS     O14      O2L     -0.780000       15.9994           0
      4534 MEMB     39       SAPS     O12      OSLP    -0.570000       15.9994           0
      4535 MEMB     39       SAPS     O11      OSLP    -0.570000       15.9994           0
      4536 MEMB     39       SAPS     C1       CTL2    -0.800000E-01   12.0110           0
      4537 MEMB     39       SAPS     HA       HAL2     0.900000E-01   1.00800           0
      4538 MEMB     39       SAPS     HB       HAL2     0.900000E-01   1.00800           0
      4539 MEMB     39       SAPS     C2       CTL1     0.170000       12.0110           0
      4540 MEMB     39       SAPS     HS       HAL1     0.900000E-01   1.00800           0
      4541 MEMB     39       SAPS     O21      OSL     -0.490000       15.9994           0
      4542 MEMB     39       SAPS     C21      CL       0.900000       12.0110           0
      4543 MEMB     39       SAPS     O22      OBL     -0.630000       15.9994           0
      4544 MEMB     39       SAPS     C22      CTL2    -0.220000       12.0110           0
      4545 MEMB     39       SAPS     H2R      HAL2     0.900000E-01   1.00800           0
      4546 MEMB     39       SAPS     H2S      HAL2     0.900000E-01   1.00800           0
      4547 MEMB     39       SAPS     C3       CTL2     0.800000E-01   12.0110           0
      4548 MEMB     39       SAPS     HX       HAL2     0.900000E-01   1.00800           0
      4549 MEMB     39       SAPS     HY       HAL2     0.900000E-01   1.00800           0
      4550 MEMB     39       SAPS     O31      OSL     -0.490000       15.9994           0
      4551 MEMB     39       SAPS     C31      CL       0.900000       12.0110           0
      4552 MEMB     39       SAPS     O32      OBL     -0.630000       15.9994           0
      4553 MEMB     39       SAPS     C32      CTL2    -0.220000       12.0110           0
      4554 MEMB     39       SAPS     H2X      HAL2     0.900000E-01   1.00800           0
      4555 MEMB     39       SAPS     H2Y      HAL2     0.900000E-01   1.00800           0
      4556 MEMB     39       SAPS     C23      CTL2    -0.180000       12.0110           0
      4557 MEMB     39       SAPS     H3R      HAL2     0.900000E-01   1.00800           0
      4558 MEMB     39       SAPS     H3S      HAL2     0.900000E-01   1.00800           0
      4559 MEMB     39       SAPS     C24      CTL2    -0.180000       12.0110           0
      4560 MEMB     39       SAPS     H4R      HAL2     0.900000E-01   1.00800           0
      4561 MEMB     39       SAPS     H4S      HAL2     0.900000E-01   1.00800           0
      4562 MEMB     39       SAPS     C25      CEL1    -0.150000       12.0110           0
      4563 MEMB     39       SAPS     H5R      HEL1     0.150000       1.00800           0
      4564 MEMB     39       SAPS     C26      CEL1    -0.150000       12.0110           0
      4565 MEMB     39       SAPS     H6R      HEL1     0.150000       1.00800           0
      4566 MEMB     39       SAPS     C27      CTL2    -0.180000       12.0110           0
      4567 MEMB     39       SAPS     H7R      HAL2     0.900000E-01   1.00800           0
      4568 MEMB     39       SAPS     H7S      HAL2     0.900000E-01   1.00800           0
      4569 MEMB     39       SAPS     C28      CEL1    -0.150000       12.0110           0
      4570 MEMB     39       SAPS     H8R      HEL1     0.150000       1.00800           0
      4571 MEMB     39       SAPS     C29      CEL1    -0.150000       12.0110           0
      4572 MEMB     39       SAPS     H9R      HEL1     0.150000       1.00800           0
      4573 MEMB     39       SAPS     C210     CTL2    -0.180000       12.0110           0
      4574 MEMB     39       SAPS     H10R     HAL2     0.900000E-01   1.00800           0
      4575 MEMB     39       SAPS     H10S     HAL2     0.900000E-01   1.00800           0
      4576 MEMB     39       SAPS     C211     CEL1    -0.150000       12.0110           0
      4577 MEMB     39       SAPS     H11R     HEL1     0.150000       1.00800           0
      4578 MEMB     39       SAPS     C212     CEL1    -0.150000       12.0110           0
      4579 MEMB     39       SAPS     H12R     HEL1     0.150000       1.00800           0
      4580 MEMB     39       SAPS     C213     CTL2    -0.180000       12.0110           0
      4581 MEMB     39       SAPS     H13R     HAL2     0.900000E-01   1.00800           0
      4582 MEMB     39       SAPS     H13S     HAL2     0.900000E-01   1.00800           0
      4583 MEMB     39       SAPS     C214     CEL1    -0.150000       12.0110           0
      4584 MEMB     39       SAPS     H14R     HEL1     0.150000       1.00800           0
      4585 MEMB     39       SAPS     C215     CEL1    -0.150000       12.0110           0
      4586 MEMB     39       SAPS     H15R     HEL1     0.150000       1.00800           0
      4587 MEMB     39       SAPS     C216     CTL2    -0.180000       12.0110           0
      4588 MEMB     39       SAPS     H16R     HAL2     0.900000E-01   1.00800           0
      4589 MEMB     39       SAPS     H16S     HAL2     0.900000E-01   1.00800           0
      4590 MEMB     39       SAPS     C217     CTL2    -0.180000       12.0110           0
      4591 MEMB     39       SAPS     H17R     HAL2     0.900000E-01   1.00800           0
      4592 MEMB     39       SAPS     H17S     HAL2     0.900000E-01   1.00800           0
      4593 MEMB     39       SAPS     C218     CTL2    -0.180000       12.0110           0
      4594 MEMB     39       SAPS     H18R     HAL2     0.900000E-01   1.00800           0
      4595 MEMB     39       SAPS     H18S     HAL2     0.900000E-01   1.00800           0
      4596 MEMB     39       SAPS     C219     CTL2    -0.180000       12.0110           0
      4597 MEMB     39       SAPS     H19R     HAL2     0.900000E-01   1.00800           0
      4598 MEMB     39       SAPS     H19S     HAL2     0.900000E-01   1.00800           0
      4599 MEMB     39       SAPS     C220     CTL3    -0.270000       12.0110           0
      4600 MEMB     39       SAPS     H20R     HAL3     0.900000E-01   1.00800           0
      4601 MEMB     39       SAPS     H20S     HAL3     0.900000E-01   1.00800           0
      4602 MEMB     39       SAPS     H20T     HAL3     0.900000E-01   1.00800           0
      4603 MEMB     39       SAPS     C33      CTL2    -0.180000       12.0110           0
      4604 MEMB     39       SAPS     H3X      HAL2     0.900000E-01   1.00800           0
      4605 MEMB     39       SAPS     H3Y      HAL2     0.900000E-01   1.00800           0
      4606 MEMB     39       SAPS     C34      CTL2    -0.180000       12.0110           0
      4607 MEMB     39       SAPS     H4X      HAL2     0.900000E-01   1.00800           0
      4608 MEMB     39       SAPS     H4Y      HAL2     0.900000E-01   1.00800           0
      4609 MEMB     39       SAPS     C35      CTL2    -0.180000       12.0110           0
      4610 MEMB     39       SAPS     H5X      HAL2     0.900000E-01   1.00800           0
      4611 MEMB     39       SAPS     H5Y      HAL2     0.900000E-01   1.00800           0
      4612 MEMB     39       SAPS     C36      CTL2    -0.180000       12.0110           0
      4613 MEMB     39       SAPS     H6X      HAL2     0.900000E-01   1.00800           0
      4614 MEMB     39       SAPS     H6Y      HAL2     0.900000E-01   1.00800           0
      4615 MEMB     39       SAPS     C37      CTL2    -0.180000       12.0110           0
      4616 MEMB     39       SAPS     H7X      HAL2     0.900000E-01   1.00800           0
      4617 MEMB     39       SAPS     H7Y      HAL2     0.900000E-01   1.00800           0
      4618 MEMB     39       SAPS     C38      CTL2    -0.180000       12.0110           0
      4619 MEMB     39       SAPS     H8X      HAL2     0.900000E-01   1.00800           0
      4620 MEMB     39       SAPS     H8Y      HAL2     0.900000E-01   1.00800           0
      4621 MEMB     39       SAPS     C39      CTL2    -0.180000       12.0110           0
      4622 MEMB     39       SAPS     H9X      HAL2     0.900000E-01   1.00800           0
      4623 MEMB     39       SAPS     H9Y      HAL2     0.900000E-01   1.00800           0
      4624 MEMB     39       SAPS     C310     CTL2    -0.180000       12.0110           0
      4625 MEMB     39       SAPS     H10X     HAL2     0.900000E-01   1.00800           0
      4626 MEMB     39       SAPS     H10Y     HAL2     0.900000E-01   1.00800           0
      4627 MEMB     39       SAPS     C311     CTL2    -0.180000       12.0110           0
      4628 MEMB     39       SAPS     H11X     HAL2     0.900000E-01   1.00800           0
      4629 MEMB     39       SAPS     H11Y     HAL2     0.900000E-01   1.00800           0
      4630 MEMB     39       SAPS     C312     CTL2    -0.180000       12.0110           0
      4631 MEMB     39       SAPS     H12X     HAL2     0.900000E-01   1.00800           0
      4632 MEMB     39       SAPS     H12Y     HAL2     0.900000E-01   1.00800           0
      4633 MEMB     39       SAPS     C313     CTL2    -0.180000       12.0110           0
      4634 MEMB     39       SAPS     H13X     HAL2     0.900000E-01   1.00800           0
      4635 MEMB     39       SAPS     H13Y     HAL2     0.900000E-01   1.00800           0
      4636 MEMB     39       SAPS     C314     CTL2    -0.180000       12.0110           0
      4637 MEMB     39       SAPS     H14X     HAL2     0.900000E-01   1.00800           0
      4638 MEMB     39       SAPS     H14Y     HAL2     0.900000E-01   1.00800           0
      4639 MEMB     39       SAPS     C315     CTL2    -0.180000       12.0110           0
      4640 MEMB     39       SAPS     H15X     HAL2     0.900000E-01   1.00800           0
      4641 MEMB     39       SAPS     H15Y     HAL2     0.900000E-01   1.00800           0
      4642 MEMB     39       SAPS     C316     CTL2    -0.180000       12.0110           0
      4643 MEMB     39       SAPS     H16X     HAL2     0.900000E-01   1.00800           0
      4644 MEMB     39       SAPS     H16Y     HAL2     0.900000E-01   1.00800           0
      4645 MEMB     39       SAPS     C317     CTL2    -0.180000       12.0110           0
      4646 MEMB     39       SAPS     H17X     HAL2     0.900000E-01   1.00800           0
      4647 MEMB     39       SAPS     H17Y     HAL2     0.900000E-01   1.00800           0
      4648 MEMB     39       SAPS     C318     CTL3    -0.270000       12.0110           0
      4649 MEMB     39       SAPS     H18X     HAL3     0.900000E-01   1.00800           0
      4650 MEMB     39       SAPS     H18Y     HAL3     0.900000E-01   1.00800           0
      4651 MEMB     39       SAPS     H18Z     HAL3     0.900000E-01   1.00800           0
      4652 MEMB     40       SAPI     C12      CC3161   0.140000       12.0110           0
      4653 MEMB     40       SAPI     H2       HCA1     0.900000E-01   1.00800           0
      4654 MEMB     40       SAPI     O2       OC311   -0.650000       15.9994           0
      4655 MEMB     40       SAPI     HO2      HCP1     0.420000       1.00800           0
      4656 MEMB     40       SAPI     C13      CC3161   0.140000       12.0110           0
      4657 MEMB     40       SAPI     H3       HCA1     0.900000E-01   1.00800           0
      4658 MEMB     40       SAPI     O3       OC311   -0.650000       15.9994           0
      4659 MEMB     40       SAPI     HO3      HCP1     0.420000       1.00800           0
      4660 MEMB     40       SAPI     C14      CC3161   0.140000       12.0110           0
      4661 MEMB     40       SAPI     H4       HCA1     0.900000E-01   1.00800           0
      4662 MEMB     40       SAPI     O4       OC311   -0.650000       15.9994           0
      4663 MEMB     40       SAPI     HO4      HCP1     0.420000       1.00800           0
      4664 MEMB     40       SAPI     C15      CC3161   0.140000       12.0110           0
      4665 MEMB     40       SAPI     H5       HCA1     0.900000E-01   1.00800           0
      4666 MEMB     40       SAPI     O5       OC311   -0.650000       15.9994           0
      4667 MEMB     40       SAPI     HO5      HCP1     0.420000       1.00800           0
      4668 MEMB     40       SAPI     C16      CC3161   0.140000       12.0110           0
      4669 MEMB     40       SAPI     H6       HCA1     0.900000E-01   1.00800           0
      4670 MEMB     40       SAPI     O6       OC311   -0.650000       15.9994           0
      4671 MEMB     40       SAPI     HO6      HCP1     0.420000       1.00800           0
      4672 MEMB     40       SAPI     C11      CC3161  -0.800000E-01   12.0110           0
      4673 MEMB     40       SAPI     H1       HCA1     0.900000E-01   1.00800           0
      4674 MEMB     40       SAPI     P        PL        1.59000       30.9740           0
      4675 MEMB     40       SAPI     O13      O2L     -0.780000       15.9994           0
      4676 MEMB     40       SAPI     O14      O2L     -0.780000       15.9994           0
      4677 MEMB     40       SAPI     O12      OC30P   -0.570000       15.9994           0
      4678 MEMB     40       SAPI     O11      OSLP    -0.570000       15.9994           0
      4679 MEMB     40       SAPI     C1       CTL2    -0.800000E-01   12.0110           0
      4680 MEMB     40       SAPI     HA       HAL2     0.900000E-01   1.00800           0
      4681 MEMB     40       SAPI     HB       HAL2     0.900000E-01   1.00800           0
      4682 MEMB     40       SAPI     C2       CTL1     0.170000       12.0110           0
      4683 MEMB     40       SAPI     HS       HAL1     0.900000E-01   1.00800           0
      4684 MEMB     40       SAPI     O21      OSL     -0.490000       15.9994           0
      4685 MEMB     40       SAPI     C21      CL       0.900000       12.0110           0
      4686 MEMB     40       SAPI     O22      OBL     -0.630000       15.9994           0
      4687 MEMB     40       SAPI     C22      CTL2    -0.220000       12.0110           0
      4688 MEMB     40       SAPI     H2R      HAL2     0.900000E-01   1.00800           0
      4689 MEMB     40       SAPI     H2S      HAL2     0.900000E-01   1.00800           0
      4690 MEMB     40       SAPI     C3       CTL2     0.800000E-01   12.0110           0
      4691 MEMB     40       SAPI     HX       HAL2     0.900000E-01   1.00800           0
      4692 MEMB     40       SAPI     HY       HAL2     0.900000E-01   1.00800           0
      4693 MEMB     40       SAPI     O31      OSL     -0.490000       15.9994           0
      4694 MEMB     40       SAPI     C31      CL       0.900000       12.0110           0
      4695 MEMB     40       SAPI     O32      OBL     -0.630000       15.9994           0
      4696 MEMB     40       SAPI     C32      CTL2    -0.220000       12.0110           0
      4697 MEMB     40       SAPI     H2X      HAL2     0.900000E-01   1.00800           0
      4698 MEMB     40       SAPI     H2Y      HAL2     0.900000E-01   1.00800           0
      4699 MEMB     40       SAPI     C23      CTL2    -0.180000       12.0110           0
      4700 MEMB     40       SAPI     H3R      HAL2     0.900000E-01   1.00800           0
      4701 MEMB     40       SAPI     H3S      HAL2     0.900000E-01   1.00800           0
      4702 MEMB     40       SAPI     C24      CTL2    -0.180000       12.0110           0
      4703 MEMB     40       SAPI     H4R      HAL2     0.900000E-01   1.00800           0
      4704 MEMB     40       SAPI     H4S      HAL2     0.900000E-01   1.00800           0
      4705 MEMB     40       SAPI     C25      CEL1    -0.150000       12.0110           0
      4706 MEMB     40       SAPI     H5R      HEL1     0.150000       1.00800           0
      4707 MEMB     40       SAPI     C26      CEL1    -0.150000       12.0110           0
      4708 MEMB     40       SAPI     H6R      HEL1     0.150000       1.00800           0
      4709 MEMB     40       SAPI     C27      CTL2    -0.180000       12.0110           0
      4710 MEMB     40       SAPI     H7R      HAL2     0.900000E-01   1.00800           0
      4711 MEMB     40       SAPI     H7S      HAL2     0.900000E-01   1.00800           0
      4712 MEMB     40       SAPI     C28      CEL1    -0.150000       12.0110           0
      4713 MEMB     40       SAPI     H8R      HEL1     0.150000       1.00800           0
      4714 MEMB     40       SAPI     C29      CEL1    -0.150000       12.0110           0
      4715 MEMB     40       SAPI     H9R      HEL1     0.150000       1.00800           0
      4716 MEMB     40       SAPI     C210     CTL2    -0.180000       12.0110           0
      4717 MEMB     40       SAPI     H10R     HAL2     0.900000E-01   1.00800           0
      4718 MEMB     40       SAPI     H10S     HAL2     0.900000E-01   1.00800           0
      4719 MEMB     40       SAPI     C211     CEL1    -0.150000       12.0110           0
      4720 MEMB     40       SAPI     H11R     HEL1     0.150000       1.00800           0
      4721 MEMB     40       SAPI     C212     CEL1    -0.150000       12.0110           0
      4722 MEMB     40       SAPI     H12R     HEL1     0.150000       1.00800           0
      4723 MEMB     40       SAPI     C213     CTL2    -0.180000       12.0110           0
      4724 MEMB     40       SAPI     H13R     HAL2     0.900000E-01   1.00800           0
      4725 MEMB     40       SAPI     H13S     HAL2     0.900000E-01   1.00800           0
      4726 MEMB     40       SAPI     C214     CEL1    -0.150000       12.0110           0
      4727 MEMB     40       SAPI     H14R     HEL1     0.150000       1.00800           0
      4728 MEMB     40       SAPI     C215     CEL1    -0.150000       12.0110           0
      4729 MEMB     40       SAPI     H15R     HEL1     0.150000       1.00800           0
      4730 MEMB     40       SAPI     C216     CTL2    -0.180000       12.0110           0
      4731 MEMB     40       SAPI     H16R     HAL2     0.900000E-01   1.00800           0
      4732 MEMB     40       SAPI     H16S     HAL2     0.900000E-01   1.00800           0
      4733 MEMB     40       SAPI     C217     CTL2    -0.180000       12.0110           0
      4734 MEMB     40       SAPI     H17R     HAL2     0.900000E-01   1.00800           0
      4735 MEMB     40       SAPI     H17S     HAL2     0.900000E-01   1.00800           0
      4736 MEMB     40       SAPI     C218     CTL2    -0.180000       12.0110           0
      4737 MEMB     40       SAPI     H18R     HAL2     0.900000E-01   1.00800           0
      4738 MEMB     40       SAPI     H18S     HAL2     0.900000E-01   1.00800           0
      4739 MEMB     40       SAPI     C219     CTL2    -0.180000       12.0110           0
      4740 MEMB     40       SAPI     H19R     HAL2     0.900000E-01   1.00800           0
      4741 MEMB     40       SAPI     H19S     HAL2     0.900000E-01   1.00800           0
      4742 MEMB     40       SAPI     C220     CTL3    -0.270000       12.0110           0
      4743 MEMB     40       SAPI     H20R     HAL3     0.900000E-01   1.00800           0
      4744 MEMB     40       SAPI     H20S     HAL3     0.900000E-01   1.00800           0
      4745 MEMB     40       SAPI     H20T     HAL3     0.900000E-01   1.00800           0
      4746 MEMB     40       SAPI     C33      CTL2    -0.180000       12.0110           0
      4747 MEMB     40       SAPI     H3X      HAL2     0.900000E-01   1.00800           0
      4748 MEMB     40       SAPI     H3Y      HAL2     0.900000E-01   1.00800           0
      4749 MEMB     40       SAPI     C34      CTL2    -0.180000       12.0110           0
      4750 MEMB     40       SAPI     H4X      HAL2     0.900000E-01   1.00800           0
      4751 MEMB     40       SAPI     H4Y      HAL2     0.900000E-01   1.00800           0
      4752 MEMB     40       SAPI     C35      CTL2    -0.180000       12.0110           0
      4753 MEMB     40       SAPI     H5X      HAL2     0.900000E-01   1.00800           0
      4754 MEMB     40       SAPI     H5Y      HAL2     0.900000E-01   1.00800           0
      4755 MEMB     40       SAPI     C36      CTL2    -0.180000       12.0110           0
      4756 MEMB     40       SAPI     H6X      HAL2     0.900000E-01   1.00800           0
      4757 MEMB     40       SAPI     H6Y      HAL2     0.900000E-01   1.00800           0
      4758 MEMB     40       SAPI     C37      CTL2    -0.180000       12.0110           0
      4759 MEMB     40       SAPI     H7X      HAL2     0.900000E-01   1.00800           0
      4760 MEMB     40       SAPI     H7Y      HAL2     0.900000E-01   1.00800           0
      4761 MEMB     40       SAPI     C38      CTL2    -0.180000       12.0110           0
      4762 MEMB     40       SAPI     H8X      HAL2     0.900000E-01   1.00800           0
      4763 MEMB     40       SAPI     H8Y      HAL2     0.900000E-01   1.00800           0
      4764 MEMB     40       SAPI     C39      CTL2    -0.180000       12.0110           0
      4765 MEMB     40       SAPI     H9X      HAL2     0.900000E-01   1.00800           0
      4766 MEMB     40       SAPI     H9Y      HAL2     0.900000E-01   1.00800           0
      4767 MEMB     40       SAPI     C310     CTL2    -0.180000       12.0110           0
      4768 MEMB     40       SAPI     H10X     HAL2     0.900000E-01   1.00800           0
      4769 MEMB     40       SAPI     H10Y     HAL2     0.900000E-01   1.00800           0
      4770 MEMB     40       SAPI     C311     CTL2    -0.180000       12.0110           0
      4771 MEMB     40       SAPI     H11X     HAL2     0.900000E-01   1.00800           0
      4772 MEMB     40       SAPI     H11Y     HAL2     0.900000E-01   1.00800           0
      4773 MEMB     40       SAPI     C312     CTL2    -0.180000       12.0110           0
      4774 MEMB     40       SAPI     H12X     HAL2     0.900000E-01   1.00800           0
      4775 MEMB     40       SAPI     H12Y     HAL2     0.900000E-01   1.00800           0
      4776 MEMB     40       SAPI     C313     CTL2    -0.180000       12.0110           0
      4777 MEMB     40       SAPI     H13X     HAL2     0.900000E-01   1.00800           0
      4778 MEMB     40       SAPI     H13Y     HAL2     0.900000E-01   1.00800           0
      4779 MEMB     40       SAPI     C314     CTL2    -0.180000       12.0110           0
      4780 MEMB     40       SAPI     H14X     HAL2     0.900000E-01   1.00800           0
      4781 MEMB     40       SAPI     H14Y     HAL2     0.900000E-01   1.00800           0
      4782 MEMB     40       SAPI     C315     CTL2    -0.180000       12.0110           0
      4783 MEMB     40       SAPI     H15X     HAL2     0.900000E-01   1.00800           0
      4784 MEMB     40       SAPI     H15Y     HAL2     0.900000E-01   1.00800           0
      4785 MEMB     40       SAPI     C316     CTL2    -0.180000       12.0110           0
      4786 MEMB     40       SAPI     H16X     HAL2     0.900000E-01   1.00800           0
      4787 MEMB     40       SAPI     H16Y     HAL2     0.900000E-01   1.00800           0
      4788 MEMB     40       SAPI     C317     CTL2    -0.180000       12.0110           0
      4789 MEMB     40       SAPI     H17X     HAL2     0.900000E-01   1.00800           0
      4790 MEMB     40       SAPI     H17Y     HAL2     0.900000E-01   1.00800           0
      4791 MEMB     40       SAPI     C318     CTL3    -0.270000       12.0110           0
      4792 MEMB     40       SAPI     H18X     HAL3     0.900000E-01   1.00800           0
      4793 MEMB     40       SAPI     H18Y     HAL3     0.900000E-01   1.00800           0
      4794 MEMB     40       SAPI     H18Z     HAL3     0.900000E-01   1.00800           0
      4795 MEMB     41       CHL1     C3       CRL1     0.140000       12.0110           0
      4796 MEMB     41       CHL1     H3       HGA1     0.900000E-01   1.00800           0
      4797 MEMB     41       CHL1     O3       OHL     -0.660000       15.9994           0
      4798 MEMB     41       CHL1     H3'      HOL      0.430000       1.00800           0
      4799 MEMB     41       CHL1     C4       CRL2    -0.180000       12.0110           0
      4800 MEMB     41       CHL1     H4A      HGA2     0.900000E-01   1.00800           0
      4801 MEMB     41       CHL1     H4B      HGA2     0.900000E-01   1.00800           0
      4802 MEMB     41       CHL1     C5       CEL1      0.00000       12.0110           0
      4803 MEMB     41       CHL1     C6       CEL1    -0.150000       12.0110           0
      4804 MEMB     41       CHL1     H6       HEL1     0.150000       1.00800           0
      4805 MEMB     41       CHL1     C7       CRL2    -0.180000       12.0110           0
      4806 MEMB     41       CHL1     H7A      HGA2     0.900000E-01   1.00800           0
      4807 MEMB     41       CHL1     H7B      HGA2     0.900000E-01   1.00800           0
      4808 MEMB     41       CHL1     C8       CRL1    -0.900000E-01   12.0110           0
      4809 MEMB     41       CHL1     H8       HGA1     0.900000E-01   1.00800           0
      4810 MEMB     41       CHL1     C14      CRL1    -0.900000E-01   12.0110           0
      4811 MEMB     41       CHL1     H14      HGA1     0.900000E-01   1.00800           0
      4812 MEMB     41       CHL1     C15      CRL2    -0.180000       12.0110           0
      4813 MEMB     41       CHL1     H15A     HGA2     0.900000E-01   1.00800           0
      4814 MEMB     41       CHL1     H15B     HGA2     0.900000E-01   1.00800           0
      4815 MEMB     41       CHL1     C16      CRL2    -0.180000       12.0110           0
      4816 MEMB     41       CHL1     H16A     HGA2     0.900000E-01   1.00800           0
      4817 MEMB     41       CHL1     H16B     HGA2     0.900000E-01   1.00800           0
      4818 MEMB     41       CHL1     C17      CRL1    -0.900000E-01   12.0110           0
      4819 MEMB     41       CHL1     H17      HGA1     0.900000E-01   1.00800           0
      4820 MEMB     41       CHL1     C13      CRL1      0.00000       12.0110           0
      4821 MEMB     41       CHL1     C18      CTL3    -0.270000       12.0110           0
      4822 MEMB     41       CHL1     H18A     HAL3     0.900000E-01   1.00800           0
      4823 MEMB     41       CHL1     H18B     HAL3     0.900000E-01   1.00800           0
      4824 MEMB     41       CHL1     H18C     HAL3     0.900000E-01   1.00800           0
      4825 MEMB     41       CHL1     C12      CRL2    -0.180000       12.0110           0
      4826 MEMB     41       CHL1     H12A     HGA2     0.900000E-01   1.00800           0
      4827 MEMB     41       CHL1     H12B     HGA2     0.900000E-01   1.00800           0
      4828 MEMB     41       CHL1     C11      CRL2    -0.180000       12.0110           0
      4829 MEMB     41       CHL1     H11A     HGA2     0.900000E-01   1.00800           0
      4830 MEMB     41       CHL1     H11B     HGA2     0.900000E-01   1.00800           0
      4831 MEMB     41       CHL1     C9       CRL1    -0.900000E-01   12.0110           0
      4832 MEMB     41       CHL1     H9       HGA1     0.900000E-01   1.00800           0
      4833 MEMB     41       CHL1     C10      CRL1      0.00000       12.0110           0
      4834 MEMB     41       CHL1     C19      CTL3    -0.270000       12.0110           0
      4835 MEMB     41       CHL1     H19A     HAL3     0.900000E-01   1.00800           0
      4836 MEMB     41       CHL1     H19B     HAL3     0.900000E-01   1.00800           0
      4837 MEMB     41       CHL1     H19C     HAL3     0.900000E-01   1.00800           0
      4838 MEMB     41       CHL1     C1       CRL2    -0.180000       12.0110           0
      4839 MEMB     41       CHL1     H1A      HGA2     0.900000E-01   1.00800           0
      4840 MEMB     41       CHL1     H1B      HGA2     0.900000E-01   1.00800           0
      4841 MEMB     41       CHL1     C2       CRL2    -0.180000       12.0110           0
      4842 MEMB     41       CHL1     H2A      HGA2     0.900000E-01   1.00800           0
      4843 MEMB     41       CHL1     H2B      HGA2     0.900000E-01   1.00800           0
      4844 MEMB     41       CHL1     C20      CTL1    -0.900000E-01   12.0110           0
      4845 MEMB     41       CHL1     H20      HAL1     0.900000E-01   1.00800           0
      4846 MEMB     41       CHL1     C21      CTL3    -0.270000       12.0110           0
      4847 MEMB     41       CHL1     H21A     HAL3     0.900000E-01   1.00800           0
      4848 MEMB     41       CHL1     H21B     HAL3     0.900000E-01   1.00800           0
      4849 MEMB     41       CHL1     H21C     HAL3     0.900000E-01   1.00800           0
      4850 MEMB     41       CHL1     C22      CTL2    -0.180000       12.0110           0
      4851 MEMB     41       CHL1     H22A     HAL2     0.900000E-01   1.00800           0
      4852 MEMB     41       CHL1     H22B     HAL2     0.900000E-01   1.00800           0
      4853 MEMB     41       CHL1     C23      CTL2    -0.180000       12.0110           0
      4854 MEMB     41       CHL1     H23A     HAL2     0.900000E-01   1.00800           0
      4855 MEMB     41       CHL1     H23B     HAL2     0.900000E-01   1.00800           0
      4856 MEMB     41       CHL1     C24      CTL2    -0.180000       12.0110           0
      4857 MEMB     41       CHL1     H24A     HAL2     0.900000E-01   1.00800           0
      4858 MEMB     41       CHL1     H24B     HAL2     0.900000E-01   1.00800           0
      4859 MEMB     41       CHL1     C25      CTL1    -0.900000E-01   12.0110           0
      4860 MEMB     41       CHL1     H25      HAL1     0.900000E-01   1.00800           0
      4861 MEMB     41       CHL1     C26      CTL3    -0.270000       12.0110           0
      4862 MEMB     41       CHL1     H26A     HAL3     0.900000E-01   1.00800           0
      4863 MEMB     41       CHL1     H26B     HAL3     0.900000E-01   1.00800           0
      4864 MEMB     41       CHL1     H26C     HAL3     0.900000E-01   1.00800           0
      4865 MEMB     41       CHL1     C27      CTL3    -0.270000       12.0110           0
      4866 MEMB     41       CHL1     H27A     HAL3     0.900000E-01   1.00800           0
      4867 MEMB     41       CHL1     H27B     HAL3     0.900000E-01   1.00800           0
      4868 MEMB     41       CHL1     H27C     HAL3     0.900000E-01   1.00800           0
      4869 MEMB     42       CHL1     C3       CRL1     0.140000       12.0110           0
      4870 MEMB     42       CHL1     H3       HGA1     0.900000E-01   1.00800           0
      4871 MEMB     42       CHL1     O3       OHL     -0.660000       15.9994           0
      4872 MEMB     42       CHL1     H3'      HOL      0.430000       1.00800           0
      4873 MEMB     42       CHL1     C4       CRL2    -0.180000       12.0110           0
      4874 MEMB     42       CHL1     H4A      HGA2     0.900000E-01   1.00800           0
      4875 MEMB     42       CHL1     H4B      HGA2     0.900000E-01   1.00800           0
      4876 MEMB     42       CHL1     C5       CEL1      0.00000       12.0110           0
      4877 MEMB     42       CHL1     C6       CEL1    -0.150000       12.0110           0
      4878 MEMB     42       CHL1     H6       HEL1     0.150000       1.00800           0
      4879 MEMB     42       CHL1     C7       CRL2    -0.180000       12.0110           0
      4880 MEMB     42       CHL1     H7A      HGA2     0.900000E-01   1.00800           0
      4881 MEMB     42       CHL1     H7B      HGA2     0.900000E-01   1.00800           0
      4882 MEMB     42       CHL1     C8       CRL1    -0.900000E-01   12.0110           0
      4883 MEMB     42       CHL1     H8       HGA1     0.900000E-01   1.00800           0
      4884 MEMB     42       CHL1     C14      CRL1    -0.900000E-01   12.0110           0
      4885 MEMB     42       CHL1     H14      HGA1     0.900000E-01   1.00800           0
      4886 MEMB     42       CHL1     C15      CRL2    -0.180000       12.0110           0
      4887 MEMB     42       CHL1     H15A     HGA2     0.900000E-01   1.00800           0
      4888 MEMB     42       CHL1     H15B     HGA2     0.900000E-01   1.00800           0
      4889 MEMB     42       CHL1     C16      CRL2    -0.180000       12.0110           0
      4890 MEMB     42       CHL1     H16A     HGA2     0.900000E-01   1.00800           0
      4891 MEMB     42       CHL1     H16B     HGA2     0.900000E-01   1.00800           0
      4892 MEMB     42       CHL1     C17      CRL1    -0.900000E-01   12.0110           0
      4893 MEMB     42       CHL1     H17      HGA1     0.900000E-01   1.00800           0
      4894 MEMB     42       CHL1     C13      CRL1      0.00000       12.0110           0
      4895 MEMB     42       CHL1     C18      CTL3    -0.270000       12.0110           0
      4896 MEMB     42       CHL1     H18A     HAL3     0.900000E-01   1.00800           0
      4897 MEMB     42       CHL1     H18B     HAL3     0.900000E-01   1.00800           0
      4898 MEMB     42       CHL1     H18C     HAL3     0.900000E-01   1.00800           0
      4899 MEMB     42       CHL1     C12      CRL2    -0.180000       12.0110           0
      4900 MEMB     42       CHL1     H12A     HGA2     0.900000E-01   1.00800           0
      4901 MEMB     42       CHL1     H12B     HGA2     0.900000E-01   1.00800           0
      4902 MEMB     42       CHL1     C11      CRL2    -0.180000       12.0110           0
      4903 MEMB     42       CHL1     H11A     HGA2     0.900000E-01   1.00800           0
      4904 MEMB     42       CHL1     H11B     HGA2     0.900000E-01   1.00800           0
      4905 MEMB     42       CHL1     C9       CRL1    -0.900000E-01   12.0110           0
      4906 MEMB     42       CHL1     H9       HGA1     0.900000E-01   1.00800           0
      4907 MEMB     42       CHL1     C10      CRL1      0.00000       12.0110           0
      4908 MEMB     42       CHL1     C19      CTL3    -0.270000       12.0110           0
      4909 MEMB     42       CHL1     H19A     HAL3     0.900000E-01   1.00800           0
      4910 MEMB     42       CHL1     H19B     HAL3     0.900000E-01   1.00800           0
      4911 MEMB     42       CHL1     H19C     HAL3     0.900000E-01   1.00800           0
      4912 MEMB     42       CHL1     C1       CRL2    -0.180000       12.0110           0
      4913 MEMB     42       CHL1     H1A      HGA2     0.900000E-01   1.00800           0
      4914 MEMB     42       CHL1     H1B      HGA2     0.900000E-01   1.00800           0
      4915 MEMB     42       CHL1     C2       CRL2    -0.180000       12.0110           0
      4916 MEMB     42       CHL1     H2A      HGA2     0.900000E-01   1.00800           0
      4917 MEMB     42       CHL1     H2B      HGA2     0.900000E-01   1.00800           0
      4918 MEMB     42       CHL1     C20      CTL1    -0.900000E-01   12.0110           0
      4919 MEMB     42       CHL1     H20      HAL1     0.900000E-01   1.00800           0
      4920 MEMB     42       CHL1     C21      CTL3    -0.270000       12.0110           0
      4921 MEMB     42       CHL1     H21A     HAL3     0.900000E-01   1.00800           0
      4922 MEMB     42       CHL1     H21B     HAL3     0.900000E-01   1.00800           0
      4923 MEMB     42       CHL1     H21C     HAL3     0.900000E-01   1.00800           0
      4924 MEMB     42       CHL1     C22      CTL2    -0.180000       12.0110           0
      4925 MEMB     42       CHL1     H22A     HAL2     0.900000E-01   1.00800           0
      4926 MEMB     42       CHL1     H22B     HAL2     0.900000E-01   1.00800           0
      4927 MEMB     42       CHL1     C23      CTL2    -0.180000       12.0110           0
      4928 MEMB     42       CHL1     H23A     HAL2     0.900000E-01   1.00800           0
      4929 MEMB     42       CHL1     H23B     HAL2     0.900000E-01   1.00800           0
      4930 MEMB     42       CHL1     C24      CTL2    -0.180000       12.0110           0
      4931 MEMB     42       CHL1     H24A     HAL2     0.900000E-01   1.00800           0
      4932 MEMB     42       CHL1     H24B     HAL2     0.900000E-01   1.00800           0
      4933 MEMB     42       CHL1     C25      CTL1    -0.900000E-01   12.0110           0
      4934 MEMB     42       CHL1     H25      HAL1     0.900000E-01   1.00800           0
      4935 MEMB     42       CHL1     C26      CTL3    -0.270000       12.0110           0
      4936 MEMB     42       CHL1     H26A     HAL3     0.900000E-01   1.00800           0
      4937 MEMB     42       CHL1     H26B     HAL3     0.900000E-01   1.00800           0
      4938 MEMB     42       CHL1     H26C     HAL3     0.900000E-01   1.00800           0
      4939 MEMB     42       CHL1     C27      CTL3    -0.270000       12.0110           0
      4940 MEMB     42       CHL1     H27A     HAL3     0.900000E-01   1.00800           0
      4941 MEMB     42       CHL1     H27B     HAL3     0.900000E-01   1.00800           0
      4942 MEMB     42       CHL1     H27C     HAL3     0.900000E-01   1.00800           0
      4943 MEMB     43       SAPC     N        NTL     -0.600000       14.0070           0
      4944 MEMB     43       SAPC     C12      CTL2    -0.100000       12.0110           0
      4945 MEMB     43       SAPC     H12A     HL       0.250000       1.00800           0
      4946 MEMB     43       SAPC     H12B     HL       0.250000       1.00800           0
      4947 MEMB     43       SAPC     C13      CTL5    -0.350000       12.0110           0
      4948 MEMB     43       SAPC     H13A     HL       0.250000       1.00800           0
      4949 MEMB     43       SAPC     H13B     HL       0.250000       1.00800           0
      4950 MEMB     43       SAPC     H13C     HL       0.250000       1.00800           0
      4951 MEMB     43       SAPC     C14      CTL5    -0.350000       12.0110           0
      4952 MEMB     43       SAPC     H14A     HL       0.250000       1.00800           0
      4953 MEMB     43       SAPC     H14B     HL       0.250000       1.00800           0
      4954 MEMB     43       SAPC     H14C     HL       0.250000       1.00800           0
      4955 MEMB     43       SAPC     C15      CTL5    -0.350000       12.0110           0
      4956 MEMB     43       SAPC     H15A     HL       0.250000       1.00800           0
      4957 MEMB     43       SAPC     H15B     HL       0.250000       1.00800           0
      4958 MEMB     43       SAPC     H15C     HL       0.250000       1.00800           0
      4959 MEMB     43       SAPC     C11      CTL2    -0.800000E-01   12.0110           0
      4960 MEMB     43       SAPC     H11A     HAL2     0.900000E-01   1.00800           0
      4961 MEMB     43       SAPC     H11B     HAL2     0.900000E-01   1.00800           0
      4962 MEMB     43       SAPC     P        PL        1.50000       30.9740           0
      4963 MEMB     43       SAPC     O13      O2L     -0.780000       15.9994           0
      4964 MEMB     43       SAPC     O14      O2L     -0.780000       15.9994           0
      4965 MEMB     43       SAPC     O12      OSLP    -0.570000       15.9994           0
      4966 MEMB     43       SAPC     O11      OSLP    -0.570000       15.9994           0
      4967 MEMB     43       SAPC     C1       CTL2    -0.800000E-01   12.0110           0
      4968 MEMB     43       SAPC     HA       HAL2     0.900000E-01   1.00800           0
      4969 MEMB     43       SAPC     HB       HAL2     0.900000E-01   1.00800           0
      4970 MEMB     43       SAPC     C2       CTL1     0.170000       12.0110           0
      4971 MEMB     43       SAPC     HS       HAL1     0.900000E-01   1.00800           0
      4972 MEMB     43       SAPC     O21      OSL     -0.490000       15.9994           0
      4973 MEMB     43       SAPC     C21      CL       0.900000       12.0110           0
      4974 MEMB     43       SAPC     O22      OBL     -0.630000       15.9994           0
      4975 MEMB     43       SAPC     C22      CTL2    -0.220000       12.0110           0
      4976 MEMB     43       SAPC     H2R      HAL2     0.900000E-01   1.00800           0
      4977 MEMB     43       SAPC     H2S      HAL2     0.900000E-01   1.00800           0
      4978 MEMB     43       SAPC     C3       CTL2     0.800000E-01   12.0110           0
      4979 MEMB     43       SAPC     HX       HAL2     0.900000E-01   1.00800           0
      4980 MEMB     43       SAPC     HY       HAL2     0.900000E-01   1.00800           0
      4981 MEMB     43       SAPC     O31      OSL     -0.490000       15.9994           0
      4982 MEMB     43       SAPC     C31      CL       0.900000       12.0110           0
      4983 MEMB     43       SAPC     O32      OBL     -0.630000       15.9994           0
      4984 MEMB     43       SAPC     C32      CTL2    -0.220000       12.0110           0
      4985 MEMB     43       SAPC     H2X      HAL2     0.900000E-01   1.00800           0
      4986 MEMB     43       SAPC     H2Y      HAL2     0.900000E-01   1.00800           0
      4987 MEMB     43       SAPC     C23      CTL2    -0.180000       12.0110           0
      4988 MEMB     43       SAPC     H3R      HAL2     0.900000E-01   1.00800           0
      4989 MEMB     43       SAPC     H3S      HAL2     0.900000E-01   1.00800           0
      4990 MEMB     43       SAPC     C24      CTL2    -0.180000       12.0110           0
      4991 MEMB     43       SAPC     H4R      HAL2     0.900000E-01   1.00800           0
      4992 MEMB     43       SAPC     H4S      HAL2     0.900000E-01   1.00800           0
      4993 MEMB     43       SAPC     C25      CEL1    -0.150000       12.0110           0
      4994 MEMB     43       SAPC     H5R      HEL1     0.150000       1.00800           0
      4995 MEMB     43       SAPC     C26      CEL1    -0.150000       12.0110           0
      4996 MEMB     43       SAPC     H6R      HEL1     0.150000       1.00800           0
      4997 MEMB     43       SAPC     C27      CTL2    -0.180000       12.0110           0
      4998 MEMB     43       SAPC     H7R      HAL2     0.900000E-01   1.00800           0
      4999 MEMB     43       SAPC     H7S      HAL2     0.900000E-01   1.00800           0
      5000 MEMB     43       SAPC     C28      CEL1    -0.150000       12.0110           0
      5001 MEMB     43       SAPC     H8R      HEL1     0.150000       1.00800           0
      5002 MEMB     43       SAPC     C29      CEL1    -0.150000       12.0110           0
      5003 MEMB     43       SAPC     H9R      HEL1     0.150000       1.00800           0
      5004 MEMB     43       SAPC     C210     CTL2    -0.180000       12.0110           0
      5005 MEMB     43       SAPC     H10R     HAL2     0.900000E-01   1.00800           0
      5006 MEMB     43       SAPC     H10S     HAL2     0.900000E-01   1.00800           0
      5007 MEMB     43       SAPC     C211     CEL1    -0.150000       12.0110           0
      5008 MEMB     43       SAPC     H11R     HEL1     0.150000       1.00800           0
      5009 MEMB     43       SAPC     C212     CEL1    -0.150000       12.0110           0
      5010 MEMB     43       SAPC     H12R     HEL1     0.150000       1.00800           0
      5011 MEMB     43       SAPC     C213     CTL2    -0.180000       12.0110           0
      5012 MEMB     43       SAPC     H13R     HAL2     0.900000E-01   1.00800           0
      5013 MEMB     43       SAPC     H13S     HAL2     0.900000E-01   1.00800           0
      5014 MEMB     43       SAPC     C214     CEL1    -0.150000       12.0110           0
      5015 MEMB     43       SAPC     H14R     HEL1     0.150000       1.00800           0
      5016 MEMB     43       SAPC     C215     CEL1    -0.150000       12.0110           0
      5017 MEMB     43       SAPC     H15R     HEL1     0.150000       1.00800           0
      5018 MEMB     43       SAPC     C216     CTL2    -0.180000       12.0110           0
      5019 MEMB     43       SAPC     H16R     HAL2     0.900000E-01   1.00800           0
      5020 MEMB     43       SAPC     H16S     HAL2     0.900000E-01   1.00800           0
      5021 MEMB     43       SAPC     C217     CTL2    -0.180000       12.0110           0
      5022 MEMB     43       SAPC     H17R     HAL2     0.900000E-01   1.00800           0
      5023 MEMB     43       SAPC     H17S     HAL2     0.900000E-01   1.00800           0
      5024 MEMB     43       SAPC     C218     CTL2    -0.270000       12.0110           0
      5025 MEMB     43       SAPC     H18R     HAL2     0.900000E-01   1.00800           0
      5026 MEMB     43       SAPC     H18S     HAL2     0.900000E-01   1.00800           0
      5027 MEMB     43       SAPC     C219     CTL2    -0.180000       12.0110           0
      5028 MEMB     43       SAPC     H19R     HAL2     0.900000E-01   1.00800           0
      5029 MEMB     43       SAPC     H19S     HAL2     0.900000E-01   1.00800           0
      5030 MEMB     43       SAPC     C220     CTL3    -0.180000       12.0110           0
      5031 MEMB     43       SAPC     H20R     HAL3     0.900000E-01   1.00800           0
      5032 MEMB     43       SAPC     H20S     HAL3     0.900000E-01   1.00800           0
      5033 MEMB     43       SAPC     H20T     HAL3     0.900000E-01   1.00800           0
      5034 MEMB     43       SAPC     C33      CTL2    -0.180000       12.0110           0
      5035 MEMB     43       SAPC     H3X      HAL2     0.900000E-01   1.00800           0
      5036 MEMB     43       SAPC     H3Y      HAL2     0.900000E-01   1.00800           0
      5037 MEMB     43       SAPC     C34      CTL2    -0.180000       12.0110           0
      5038 MEMB     43       SAPC     H4X      HAL2     0.900000E-01   1.00800           0
      5039 MEMB     43       SAPC     H4Y      HAL2     0.900000E-01   1.00800           0
      5040 MEMB     43       SAPC     C35      CTL2    -0.180000       12.0110           0
      5041 MEMB     43       SAPC     H5X      HAL2     0.900000E-01   1.00800           0
      5042 MEMB     43       SAPC     H5Y      HAL2     0.900000E-01   1.00800           0
      5043 MEMB     43       SAPC     C36      CTL2    -0.180000       12.0110           0
      5044 MEMB     43       SAPC     H6X      HAL2     0.900000E-01   1.00800           0
      5045 MEMB     43       SAPC     H6Y      HAL2     0.900000E-01   1.00800           0
      5046 MEMB     43       SAPC     C37      CTL2    -0.180000       12.0110           0
      5047 MEMB     43       SAPC     H7X      HAL2     0.900000E-01   1.00800           0
      5048 MEMB     43       SAPC     H7Y      HAL2     0.900000E-01   1.00800           0
      5049 MEMB     43       SAPC     C38      CTL2    -0.180000       12.0110           0
      5050 MEMB     43       SAPC     H8X      HAL2     0.900000E-01   1.00800           0
      5051 MEMB     43       SAPC     H8Y      HAL2     0.900000E-01   1.00800           0
      5052 MEMB     43       SAPC     C39      CTL2    -0.180000       12.0110           0
      5053 MEMB     43       SAPC     H9X      HAL2     0.900000E-01   1.00800           0
      5054 MEMB     43       SAPC     H9Y      HAL2     0.900000E-01   1.00800           0
      5055 MEMB     43       SAPC     C310     CTL2    -0.180000       12.0110           0
      5056 MEMB     43       SAPC     H10X     HAL2     0.900000E-01   1.00800           0
      5057 MEMB     43       SAPC     H10Y     HAL2     0.900000E-01   1.00800           0
      5058 MEMB     43       SAPC     C311     CTL2    -0.180000       12.0110           0
      5059 MEMB     43       SAPC     H11X     HAL2     0.900000E-01   1.00800           0
      5060 MEMB     43       SAPC     H11Y     HAL2     0.900000E-01   1.00800           0
      5061 MEMB     43       SAPC     C312     CTL2    -0.180000       12.0110           0
      5062 MEMB     43       SAPC     H12X     HAL2     0.900000E-01   1.00800           0
      5063 MEMB     43       SAPC     H12Y     HAL2     0.900000E-01   1.00800           0
      5064 MEMB     43       SAPC     C313     CTL2    -0.180000       12.0110           0
      5065 MEMB     43       SAPC     H13X     HAL2     0.900000E-01   1.00800           0
      5066 MEMB     43       SAPC     H13Y     HAL2     0.900000E-01   1.00800           0
      5067 MEMB     43       SAPC     C314     CTL2    -0.180000       12.0110           0
      5068 MEMB     43       SAPC     H14X     HAL2     0.900000E-01   1.00800           0
      5069 MEMB     43       SAPC     H14Y     HAL2     0.900000E-01   1.00800           0
      5070 MEMB     43       SAPC     C315     CTL2    -0.180000       12.0110           0
      5071 MEMB     43       SAPC     H15X     HAL2     0.900000E-01   1.00800           0
      5072 MEMB     43       SAPC     H15Y     HAL2     0.900000E-01   1.00800           0
      5073 MEMB     43       SAPC     C316     CTL2    -0.180000       12.0110           0
      5074 MEMB     43       SAPC     H16X     HAL2     0.900000E-01   1.00800           0
      5075 MEMB     43       SAPC     H16Y     HAL2     0.900000E-01   1.00800           0
      5076 MEMB     43       SAPC     C317     CTL2    -0.180000       12.0110           0
      5077 MEMB     43       SAPC     H17X     HAL2     0.900000E-01   1.00800           0
      5078 MEMB     43       SAPC     H17Y     HAL2     0.900000E-01   1.00800           0
      5079 MEMB     43       SAPC     C318     CTL3    -0.270000       12.0110           0
      5080 MEMB     43       SAPC     H18X     HAL3     0.900000E-01   1.00800           0
      5081 MEMB     43       SAPC     H18Y     HAL3     0.900000E-01   1.00800           0
      5082 MEMB     43       SAPC     H18Z     HAL3     0.900000E-01   1.00800           0
      5083 MEMB     44       CHL1     C3       CRL1     0.140000       12.0110           0
      5084 MEMB     44       CHL1     H3       HGA1     0.900000E-01   1.00800           0
      5085 MEMB     44       CHL1     O3       OHL     -0.660000       15.9994           0
      5086 MEMB     44       CHL1     H3'      HOL      0.430000       1.00800           0
      5087 MEMB     44       CHL1     C4       CRL2    -0.180000       12.0110           0
      5088 MEMB     44       CHL1     H4A      HGA2     0.900000E-01   1.00800           0
      5089 MEMB     44       CHL1     H4B      HGA2     0.900000E-01   1.00800           0
      5090 MEMB     44       CHL1     C5       CEL1      0.00000       12.0110           0
      5091 MEMB     44       CHL1     C6       CEL1    -0.150000       12.0110           0
      5092 MEMB     44       CHL1     H6       HEL1     0.150000       1.00800           0
      5093 MEMB     44       CHL1     C7       CRL2    -0.180000       12.0110           0
      5094 MEMB     44       CHL1     H7A      HGA2     0.900000E-01   1.00800           0
      5095 MEMB     44       CHL1     H7B      HGA2     0.900000E-01   1.00800           0
      5096 MEMB     44       CHL1     C8       CRL1    -0.900000E-01   12.0110           0
      5097 MEMB     44       CHL1     H8       HGA1     0.900000E-01   1.00800           0
      5098 MEMB     44       CHL1     C14      CRL1    -0.900000E-01   12.0110           0
      5099 MEMB     44       CHL1     H14      HGA1     0.900000E-01   1.00800           0
      5100 MEMB     44       CHL1     C15      CRL2    -0.180000       12.0110           0
      5101 MEMB     44       CHL1     H15A     HGA2     0.900000E-01   1.00800           0
      5102 MEMB     44       CHL1     H15B     HGA2     0.900000E-01   1.00800           0
      5103 MEMB     44       CHL1     C16      CRL2    -0.180000       12.0110           0
      5104 MEMB     44       CHL1     H16A     HGA2     0.900000E-01   1.00800           0
      5105 MEMB     44       CHL1     H16B     HGA2     0.900000E-01   1.00800           0
      5106 MEMB     44       CHL1     C17      CRL1    -0.900000E-01   12.0110           0
      5107 MEMB     44       CHL1     H17      HGA1     0.900000E-01   1.00800           0
      5108 MEMB     44       CHL1     C13      CRL1      0.00000       12.0110           0
      5109 MEMB     44       CHL1     C18      CTL3    -0.270000       12.0110           0
      5110 MEMB     44       CHL1     H18A     HAL3     0.900000E-01   1.00800           0
      5111 MEMB     44       CHL1     H18B     HAL3     0.900000E-01   1.00800           0
      5112 MEMB     44       CHL1     H18C     HAL3     0.900000E-01   1.00800           0
      5113 MEMB     44       CHL1     C12      CRL2    -0.180000       12.0110           0
      5114 MEMB     44       CHL1     H12A     HGA2     0.900000E-01   1.00800           0
      5115 MEMB     44       CHL1     H12B     HGA2     0.900000E-01   1.00800           0
      5116 MEMB     44       CHL1     C11      CRL2    -0.180000       12.0110           0
      5117 MEMB     44       CHL1     H11A     HGA2     0.900000E-01   1.00800           0
      5118 MEMB     44       CHL1     H11B     HGA2     0.900000E-01   1.00800           0
      5119 MEMB     44       CHL1     C9       CRL1    -0.900000E-01   12.0110           0
      5120 MEMB     44       CHL1     H9       HGA1     0.900000E-01   1.00800           0
      5121 MEMB     44       CHL1     C10      CRL1      0.00000       12.0110           0
      5122 MEMB     44       CHL1     C19      CTL3    -0.270000       12.0110           0
      5123 MEMB     44       CHL1     H19A     HAL3     0.900000E-01   1.00800           0
      5124 MEMB     44       CHL1     H19B     HAL3     0.900000E-01   1.00800           0
      5125 MEMB     44       CHL1     H19C     HAL3     0.900000E-01   1.00800           0
      5126 MEMB     44       CHL1     C1       CRL2    -0.180000       12.0110           0
      5127 MEMB     44       CHL1     H1A      HGA2     0.900000E-01   1.00800           0
      5128 MEMB     44       CHL1     H1B      HGA2     0.900000E-01   1.00800           0
      5129 MEMB     44       CHL1     C2       CRL2    -0.180000       12.0110           0
      5130 MEMB     44       CHL1     H2A      HGA2     0.900000E-01   1.00800           0
      5131 MEMB     44       CHL1     H2B      HGA2     0.900000E-01   1.00800           0
      5132 MEMB     44       CHL1     C20      CTL1    -0.900000E-01   12.0110           0
      5133 MEMB     44       CHL1     H20      HAL1     0.900000E-01   1.00800           0
      5134 MEMB     44       CHL1     C21      CTL3    -0.270000       12.0110           0
      5135 MEMB     44       CHL1     H21A     HAL3     0.900000E-01   1.00800           0
      5136 MEMB     44       CHL1     H21B     HAL3     0.900000E-01   1.00800           0
      5137 MEMB     44       CHL1     H21C     HAL3     0.900000E-01   1.00800           0
      5138 MEMB     44       CHL1     C22      CTL2    -0.180000       12.0110           0
      5139 MEMB     44       CHL1     H22A     HAL2     0.900000E-01   1.00800           0
      5140 MEMB     44       CHL1     H22B     HAL2     0.900000E-01   1.00800           0
      5141 MEMB     44       CHL1     C23      CTL2    -0.180000       12.0110           0
      5142 MEMB     44       CHL1     H23A     HAL2     0.900000E-01   1.00800           0
      5143 MEMB     44       CHL1     H23B     HAL2     0.900000E-01   1.00800           0
      5144 MEMB     44       CHL1     C24      CTL2    -0.180000       12.0110           0
      5145 MEMB     44       CHL1     H24A     HAL2     0.900000E-01   1.00800           0
      5146 MEMB     44       CHL1     H24B     HAL2     0.900000E-01   1.00800           0
      5147 MEMB     44       CHL1     C25      CTL1    -0.900000E-01   12.0110           0
      5148 MEMB     44       CHL1     H25      HAL1     0.900000E-01   1.00800           0
      5149 MEMB     44       CHL1     C26      CTL3    -0.270000       12.0110           0
      5150 MEMB     44       CHL1     H26A     HAL3     0.900000E-01   1.00800           0
      5151 MEMB     44       CHL1     H26B     HAL3     0.900000E-01   1.00800           0
      5152 MEMB     44       CHL1     H26C     HAL3     0.900000E-01   1.00800           0
      5153 MEMB     44       CHL1     C27      CTL3    -0.270000       12.0110           0
      5154 MEMB     44       CHL1     H27A     HAL3     0.900000E-01   1.00800           0
      5155 MEMB     44       CHL1     H27B     HAL3     0.900000E-01   1.00800           0
      5156 MEMB     44       CHL1     H27C     HAL3     0.900000E-01   1.00800           0
      5157 MEMB     45       SLPC     N        NTL     -0.600000       14.0070           0
      5158 MEMB     45       SLPC     C13      CTL5    -0.350000       12.0110           0
      5159 MEMB     45       SLPC     H13A     HL       0.250000       1.00800           0
      5160 MEMB     45       SLPC     H13B     HL       0.250000       1.00800           0
      5161 MEMB     45       SLPC     H13C     HL       0.250000       1.00800           0
      5162 MEMB     45       SLPC     C14      CTL5    -0.350000       12.0110           0
      5163 MEMB     45       SLPC     H14A     HL       0.250000       1.00800           0
      5164 MEMB     45       SLPC     H14B     HL       0.250000       1.00800           0
      5165 MEMB     45       SLPC     H14C     HL       0.250000       1.00800           0
      5166 MEMB     45       SLPC     C15      CTL5    -0.350000       12.0110           0
      5167 MEMB     45       SLPC     H15A     HL       0.250000       1.00800           0
      5168 MEMB     45       SLPC     H15B     HL       0.250000       1.00800           0
      5169 MEMB     45       SLPC     H15C     HL       0.250000       1.00800           0
      5170 MEMB     45       SLPC     C12      CTL2    -0.100000       12.0110           0
      5171 MEMB     45       SLPC     H12A     HL       0.250000       1.00800           0
      5172 MEMB     45       SLPC     H12B     HL       0.250000       1.00800           0
      5173 MEMB     45       SLPC     C11      CTL2    -0.800000E-01   12.0110           0
      5174 MEMB     45       SLPC     H11A     HAL2     0.900000E-01   1.00800           0
      5175 MEMB     45       SLPC     H11B     HAL2     0.900000E-01   1.00800           0
      5176 MEMB     45       SLPC     P        PL        1.50000       30.9740           0
      5177 MEMB     45       SLPC     O13      O2L     -0.780000       15.9994           0
      5178 MEMB     45       SLPC     O14      O2L     -0.780000       15.9994           0
      5179 MEMB     45       SLPC     O12      OSLP    -0.570000       15.9994           0
      5180 MEMB     45       SLPC     O11      OSLP    -0.570000       15.9994           0
      5181 MEMB     45       SLPC     C1       CTL2    -0.800000E-01   12.0110           0
      5182 MEMB     45       SLPC     HA       HAL2     0.900000E-01   1.00800           0
      5183 MEMB     45       SLPC     HB       HAL2     0.900000E-01   1.00800           0
      5184 MEMB     45       SLPC     C2       CTL1     0.170000       12.0110           0
      5185 MEMB     45       SLPC     HS       HAL1     0.900000E-01   1.00800           0
      5186 MEMB     45       SLPC     O21      OSL     -0.490000       15.9994           0
      5187 MEMB     45       SLPC     C21      CL       0.900000       12.0110           0
      5188 MEMB     45       SLPC     O22      OBL     -0.630000       15.9994           0
      5189 MEMB     45       SLPC     C22      CTL2    -0.220000       12.0110           0
      5190 MEMB     45       SLPC     H2R      HAL2     0.900000E-01   1.00800           0
      5191 MEMB     45       SLPC     H2S      HAL2     0.900000E-01   1.00800           0
      5192 MEMB     45       SLPC     C3       CTL2     0.800000E-01   12.0110           0
      5193 MEMB     45       SLPC     HX       HAL2     0.900000E-01   1.00800           0
      5194 MEMB     45       SLPC     HY       HAL2     0.900000E-01   1.00800           0
      5195 MEMB     45       SLPC     O31      OSL     -0.490000       15.9994           0
      5196 MEMB     45       SLPC     C31      CL       0.900000       12.0110           0
      5197 MEMB     45       SLPC     O32      OBL     -0.630000       15.9994           0
      5198 MEMB     45       SLPC     C32      CTL2    -0.220000       12.0110           0
      5199 MEMB     45       SLPC     H2X      HAL2     0.900000E-01   1.00800           0
      5200 MEMB     45       SLPC     H2Y      HAL2     0.900000E-01   1.00800           0
      5201 MEMB     45       SLPC     C23      CTL2    -0.180000       12.0110           0
      5202 MEMB     45       SLPC     H3R      HAL2     0.900000E-01   1.00800           0
      5203 MEMB     45       SLPC     H3S      HAL2     0.900000E-01   1.00800           0
      5204 MEMB     45       SLPC     C24      CTL2    -0.180000       12.0110           0
      5205 MEMB     45       SLPC     H4R      HAL2     0.900000E-01   1.00800           0
      5206 MEMB     45       SLPC     H4S      HAL2     0.900000E-01   1.00800           0
      5207 MEMB     45       SLPC     C25      CTL2    -0.180000       12.0110           0
      5208 MEMB     45       SLPC     H5R      HAL2     0.900000E-01   1.00800           0
      5209 MEMB     45       SLPC     H5S      HAL2     0.900000E-01   1.00800           0
      5210 MEMB     45       SLPC     C26      CTL2    -0.180000       12.0110           0
      5211 MEMB     45       SLPC     H6R      HAL2     0.900000E-01   1.00800           0
      5212 MEMB     45       SLPC     H6S      HAL2     0.900000E-01   1.00800           0
      5213 MEMB     45       SLPC     C27      CTL2    -0.180000       12.0110           0
      5214 MEMB     45       SLPC     H7R      HAL2     0.900000E-01   1.00800           0
      5215 MEMB     45       SLPC     H7S      HAL2     0.900000E-01   1.00800           0
      5216 MEMB     45       SLPC     C28      CTL2    -0.180000       12.0110           0
      5217 MEMB     45       SLPC     H8R      HAL2     0.900000E-01   1.00800           0
      5218 MEMB     45       SLPC     H8S      HAL2     0.900000E-01   1.00800           0
      5219 MEMB     45       SLPC     C29      CEL1    -0.150000       12.0110           0
      5220 MEMB     45       SLPC     H9R      HEL1     0.150000       1.00800           0
      5221 MEMB     45       SLPC     C210     CEL1    -0.150000       12.0110           0
      5222 MEMB     45       SLPC     H10R     HEL1     0.150000       1.00800           0
      5223 MEMB     45       SLPC     C211     CTL2    -0.180000       12.0110           0
      5224 MEMB     45       SLPC     H11R     HAL2     0.900000E-01   1.00800           0
      5225 MEMB     45       SLPC     H11S     HAL2     0.900000E-01   1.00800           0
      5226 MEMB     45       SLPC     C212     CEL1    -0.150000       12.0110           0
      5227 MEMB     45       SLPC     H12R     HEL1     0.150000       1.00800           0
      5228 MEMB     45       SLPC     C213     CEL1    -0.150000       12.0110           0
      5229 MEMB     45       SLPC     H13R     HEL1     0.150000       1.00800           0
      5230 MEMB     45       SLPC     C214     CTL2    -0.180000       12.0110           0
      5231 MEMB     45       SLPC     H14R     HAL2     0.900000E-01   1.00800           0
      5232 MEMB     45       SLPC     H14S     HAL2     0.900000E-01   1.00800           0
      5233 MEMB     45       SLPC     C215     CTL2    -0.180000       12.0110           0
      5234 MEMB     45       SLPC     H15R     HAL2     0.900000E-01   1.00800           0
      5235 MEMB     45       SLPC     H15S     HAL2     0.900000E-01   1.00800           0
      5236 MEMB     45       SLPC     C216     CTL2    -0.180000       12.0110           0
      5237 MEMB     45       SLPC     H16R     HAL2     0.900000E-01   1.00800           0
      5238 MEMB     45       SLPC     H16S     HAL2     0.900000E-01   1.00800           0
      5239 MEMB     45       SLPC     C217     CTL2    -0.180000       12.0110           0
      5240 MEMB     45       SLPC     H17R     HAL2     0.900000E-01   1.00800           0
      5241 MEMB     45       SLPC     H17S     HAL2     0.900000E-01   1.00800           0
      5242 MEMB     45       SLPC     C218     CTL3    -0.270000       12.0110           0
      5243 MEMB     45       SLPC     H18R     HAL3     0.900000E-01   1.00800           0
      5244 MEMB     45       SLPC     H18S     HAL3     0.900000E-01   1.00800           0
      5245 MEMB     45       SLPC     H18T     HAL3     0.900000E-01   1.00800           0
      5246 MEMB     45       SLPC     C33      CTL2    -0.180000       12.0110           0
      5247 MEMB     45       SLPC     H3X      HAL2     0.900000E-01   1.00800           0
      5248 MEMB     45       SLPC     H3Y      HAL2     0.900000E-01   1.00800           0
      5249 MEMB     45       SLPC     C34      CTL2    -0.180000       12.0110           0
      5250 MEMB     45       SLPC     H4X      HAL2     0.900000E-01   1.00800           0
      5251 MEMB     45       SLPC     H4Y      HAL2     0.900000E-01   1.00800           0
      5252 MEMB     45       SLPC     C35      CTL2    -0.180000       12.0110           0
      5253 MEMB     45       SLPC     H5X      HAL2     0.900000E-01   1.00800           0
      5254 MEMB     45       SLPC     H5Y      HAL2     0.900000E-01   1.00800           0
      5255 MEMB     45       SLPC     C36      CTL2    -0.180000       12.0110           0
      5256 MEMB     45       SLPC     H6X      HAL2     0.900000E-01   1.00800           0
      5257 MEMB     45       SLPC     H6Y      HAL2     0.900000E-01   1.00800           0
      5258 MEMB     45       SLPC     C37      CTL2    -0.180000       12.0110           0
      5259 MEMB     45       SLPC     H7X      HAL2     0.900000E-01   1.00800           0
      5260 MEMB     45       SLPC     H7Y      HAL2     0.900000E-01   1.00800           0
      5261 MEMB     45       SLPC     C38      CTL2    -0.180000       12.0110           0
      5262 MEMB     45       SLPC     H8X      HAL2     0.900000E-01   1.00800           0
      5263 MEMB     45       SLPC     H8Y      HAL2     0.900000E-01   1.00800           0
      5264 MEMB     45       SLPC     C39      CTL2    -0.180000       12.0110           0
      5265 MEMB     45       SLPC     H9X      HAL2     0.900000E-01   1.00800           0
      5266 MEMB     45       SLPC     H9Y      HAL2     0.900000E-01   1.00800           0
      5267 MEMB     45       SLPC     C310     CTL2    -0.180000       12.0110           0
      5268 MEMB     45       SLPC     H10X     HAL2     0.900000E-01   1.00800           0
      5269 MEMB     45       SLPC     H10Y     HAL2     0.900000E-01   1.00800           0
      5270 MEMB     45       SLPC     C311     CTL2    -0.180000       12.0110           0
      5271 MEMB     45       SLPC     H11X     HAL2     0.900000E-01   1.00800           0
      5272 MEMB     45       SLPC     H11Y     HAL2     0.900000E-01   1.00800           0
      5273 MEMB     45       SLPC     C312     CTL2    -0.180000       12.0110           0
      5274 MEMB     45       SLPC     H12X     HAL2     0.900000E-01   1.00800           0
      5275 MEMB     45       SLPC     H12Y     HAL2     0.900000E-01   1.00800           0
      5276 MEMB     45       SLPC     C313     CTL2    -0.180000       12.0110           0
      5277 MEMB     45       SLPC     H13X     HAL2     0.900000E-01   1.00800           0
      5278 MEMB     45       SLPC     H13Y     HAL2     0.900000E-01   1.00800           0
      5279 MEMB     45       SLPC     C314     CTL2    -0.180000       12.0110           0
      5280 MEMB     45       SLPC     H14X     HAL2     0.900000E-01   1.00800           0
      5281 MEMB     45       SLPC     H14Y     HAL2     0.900000E-01   1.00800           0
      5282 MEMB     45       SLPC     C315     CTL2    -0.180000       12.0110           0
      5283 MEMB     45       SLPC     H15X     HAL2     0.900000E-01   1.00800           0
      5284 MEMB     45       SLPC     H15Y     HAL2     0.900000E-01   1.00800           0
      5285 MEMB     45       SLPC     C316     CTL2    -0.180000       12.0110           0
      5286 MEMB     45       SLPC     H16X     HAL2     0.900000E-01   1.00800           0
      5287 MEMB     45       SLPC     H16Y     HAL2     0.900000E-01   1.00800           0
      5288 MEMB     45       SLPC     C317     CTL2    -0.180000       12.0110           0
      5289 MEMB     45       SLPC     H17X     HAL2     0.900000E-01   1.00800           0
      5290 MEMB     45       SLPC     H17Y     HAL2     0.900000E-01   1.00800           0
      5291 MEMB     45       SLPC     C318     CTL3    -0.270000       12.0110           0
      5292 MEMB     45       SLPC     H18X     HAL3     0.900000E-01   1.00800           0
      5293 MEMB     45       SLPC     H18Y     HAL3     0.900000E-01   1.00800           0
      5294 MEMB     45       SLPC     H18Z     HAL3     0.900000E-01   1.00800           0
      5295 MEMB     46       CHL1     C3       CRL1     0.140000       12.0110           0
      5296 MEMB     46       CHL1     H3       HGA1     0.900000E-01   1.00800           0
      5297 MEMB     46       CHL1     O3       OHL     -0.660000       15.9994           0
      5298 MEMB     46       CHL1     H3'      HOL      0.430000       1.00800           0
      5299 MEMB     46       CHL1     C4       CRL2    -0.180000       12.0110           0
      5300 MEMB     46       CHL1     H4A      HGA2     0.900000E-01   1.00800           0
      5301 MEMB     46       CHL1     H4B      HGA2     0.900000E-01   1.00800           0
      5302 MEMB     46       CHL1     C5       CEL1      0.00000       12.0110           0
      5303 MEMB     46       CHL1     C6       CEL1    -0.150000       12.0110           0
      5304 MEMB     46       CHL1     H6       HEL1     0.150000       1.00800           0
      5305 MEMB     46       CHL1     C7       CRL2    -0.180000       12.0110           0
      5306 MEMB     46       CHL1     H7A      HGA2     0.900000E-01   1.00800           0
      5307 MEMB     46       CHL1     H7B      HGA2     0.900000E-01   1.00800           0
      5308 MEMB     46       CHL1     C8       CRL1    -0.900000E-01   12.0110           0
      5309 MEMB     46       CHL1     H8       HGA1     0.900000E-01   1.00800           0
      5310 MEMB     46       CHL1     C14      CRL1    -0.900000E-01   12.0110           0
      5311 MEMB     46       CHL1     H14      HGA1     0.900000E-01   1.00800           0
      5312 MEMB     46       CHL1     C15      CRL2    -0.180000       12.0110           0
      5313 MEMB     46       CHL1     H15A     HGA2     0.900000E-01   1.00800           0
      5314 MEMB     46       CHL1     H15B     HGA2     0.900000E-01   1.00800           0
      5315 MEMB     46       CHL1     C16      CRL2    -0.180000       12.0110           0
      5316 MEMB     46       CHL1     H16A     HGA2     0.900000E-01   1.00800           0
      5317 MEMB     46       CHL1     H16B     HGA2     0.900000E-01   1.00800           0
      5318 MEMB     46       CHL1     C17      CRL1    -0.900000E-01   12.0110           0
      5319 MEMB     46       CHL1     H17      HGA1     0.900000E-01   1.00800           0
      5320 MEMB     46       CHL1     C13      CRL1      0.00000       12.0110           0
      5321 MEMB     46       CHL1     C18      CTL3    -0.270000       12.0110           0
      5322 MEMB     46       CHL1     H18A     HAL3     0.900000E-01   1.00800           0
      5323 MEMB     46       CHL1     H18B     HAL3     0.900000E-01   1.00800           0
      5324 MEMB     46       CHL1     H18C     HAL3     0.900000E-01   1.00800           0
      5325 MEMB     46       CHL1     C12      CRL2    -0.180000       12.0110           0
      5326 MEMB     46       CHL1     H12A     HGA2     0.900000E-01   1.00800           0
      5327 MEMB     46       CHL1     H12B     HGA2     0.900000E-01   1.00800           0
      5328 MEMB     46       CHL1     C11      CRL2    -0.180000       12.0110           0
      5329 MEMB     46       CHL1     H11A     HGA2     0.900000E-01   1.00800           0
      5330 MEMB     46       CHL1     H11B     HGA2     0.900000E-01   1.00800           0
      5331 MEMB     46       CHL1     C9       CRL1    -0.900000E-01   12.0110           0
      5332 MEMB     46       CHL1     H9       HGA1     0.900000E-01   1.00800           0
      5333 MEMB     46       CHL1     C10      CRL1      0.00000       12.0110           0
      5334 MEMB     46       CHL1     C19      CTL3    -0.270000       12.0110           0
      5335 MEMB     46       CHL1     H19A     HAL3     0.900000E-01   1.00800           0
      5336 MEMB     46       CHL1     H19B     HAL3     0.900000E-01   1.00800           0
      5337 MEMB     46       CHL1     H19C     HAL3     0.900000E-01   1.00800           0
      5338 MEMB     46       CHL1     C1       CRL2    -0.180000       12.0110           0
      5339 MEMB     46       CHL1     H1A      HGA2     0.900000E-01   1.00800           0
      5340 MEMB     46       CHL1     H1B      HGA2     0.900000E-01   1.00800           0
      5341 MEMB     46       CHL1     C2       CRL2    -0.180000       12.0110           0
      5342 MEMB     46       CHL1     H2A      HGA2     0.900000E-01   1.00800           0
      5343 MEMB     46       CHL1     H2B      HGA2     0.900000E-01   1.00800           0
      5344 MEMB     46       CHL1     C20      CTL1    -0.900000E-01   12.0110           0
      5345 MEMB     46       CHL1     H20      HAL1     0.900000E-01   1.00800           0
      5346 MEMB     46       CHL1     C21      CTL3    -0.270000       12.0110           0
      5347 MEMB     46       CHL1     H21A     HAL3     0.900000E-01   1.00800           0
      5348 MEMB     46       CHL1     H21B     HAL3     0.900000E-01   1.00800           0
      5349 MEMB     46       CHL1     H21C     HAL3     0.900000E-01   1.00800           0
      5350 MEMB     46       CHL1     C22      CTL2    -0.180000       12.0110           0
      5351 MEMB     46       CHL1     H22A     HAL2     0.900000E-01   1.00800           0
      5352 MEMB     46       CHL1     H22B     HAL2     0.900000E-01   1.00800           0
      5353 MEMB     46       CHL1     C23      CTL2    -0.180000       12.0110           0
      5354 MEMB     46       CHL1     H23A     HAL2     0.900000E-01   1.00800           0
      5355 MEMB     46       CHL1     H23B     HAL2     0.900000E-01   1.00800           0
      5356 MEMB     46       CHL1     C24      CTL2    -0.180000       12.0110           0
      5357 MEMB     46       CHL1     H24A     HAL2     0.900000E-01   1.00800           0
      5358 MEMB     46       CHL1     H24B     HAL2     0.900000E-01   1.00800           0
      5359 MEMB     46       CHL1     C25      CTL1    -0.900000E-01   12.0110           0
      5360 MEMB     46       CHL1     H25      HAL1     0.900000E-01   1.00800           0
      5361 MEMB     46       CHL1     C26      CTL3    -0.270000       12.0110           0
      5362 MEMB     46       CHL1     H26A     HAL3     0.900000E-01   1.00800           0
      5363 MEMB     46       CHL1     H26B     HAL3     0.900000E-01   1.00800           0
      5364 MEMB     46       CHL1     H26C     HAL3     0.900000E-01   1.00800           0
      5365 MEMB     46       CHL1     C27      CTL3    -0.270000       12.0110           0
      5366 MEMB     46       CHL1     H27A     HAL3     0.900000E-01   1.00800           0
      5367 MEMB     46       CHL1     H27B     HAL3     0.900000E-01   1.00800           0
      5368 MEMB     46       CHL1     H27C     HAL3     0.900000E-01   1.00800           0
      5369 MEMB     47       SLPC     N        NTL     -0.600000       14.0070           0
      5370 MEMB     47       SLPC     C13      CTL5    -0.350000       12.0110           0
      5371 MEMB     47       SLPC     H13A     HL       0.250000       1.00800           0
      5372 MEMB     47       SLPC     H13B     HL       0.250000       1.00800           0
      5373 MEMB     47       SLPC     H13C     HL       0.250000       1.00800           0
      5374 MEMB     47       SLPC     C14      CTL5    -0.350000       12.0110           0
      5375 MEMB     47       SLPC     H14A     HL       0.250000       1.00800           0
      5376 MEMB     47       SLPC     H14B     HL       0.250000       1.00800           0
      5377 MEMB     47       SLPC     H14C     HL       0.250000       1.00800           0
      5378 MEMB     47       SLPC     C15      CTL5    -0.350000       12.0110           0
      5379 MEMB     47       SLPC     H15A     HL       0.250000       1.00800           0
      5380 MEMB     47       SLPC     H15B     HL       0.250000       1.00800           0
      5381 MEMB     47       SLPC     H15C     HL       0.250000       1.00800           0
      5382 MEMB     47       SLPC     C12      CTL2    -0.100000       12.0110           0
      5383 MEMB     47       SLPC     H12A     HL       0.250000       1.00800           0
      5384 MEMB     47       SLPC     H12B     HL       0.250000       1.00800           0
      5385 MEMB     47       SLPC     C11      CTL2    -0.800000E-01   12.0110           0
      5386 MEMB     47       SLPC     H11A     HAL2     0.900000E-01   1.00800           0
      5387 MEMB     47       SLPC     H11B     HAL2     0.900000E-01   1.00800           0
      5388 MEMB     47       SLPC     P        PL        1.50000       30.9740           0
      5389 MEMB     47       SLPC     O13      O2L     -0.780000       15.9994           0
      5390 MEMB     47       SLPC     O14      O2L     -0.780000       15.9994           0
      5391 MEMB     47       SLPC     O12      OSLP    -0.570000       15.9994           0
      5392 MEMB     47       SLPC     O11      OSLP    -0.570000       15.9994           0
      5393 MEMB     47       SLPC     C1       CTL2    -0.800000E-01   12.0110           0
      5394 MEMB     47       SLPC     HA       HAL2     0.900000E-01   1.00800           0
      5395 MEMB     47       SLPC     HB       HAL2     0.900000E-01   1.00800           0
      5396 MEMB     47       SLPC     C2       CTL1     0.170000       12.0110           0
      5397 MEMB     47       SLPC     HS       HAL1     0.900000E-01   1.00800           0
      5398 MEMB     47       SLPC     O21      OSL     -0.490000       15.9994           0
      5399 MEMB     47       SLPC     C21      CL       0.900000       12.0110           0
      5400 MEMB     47       SLPC     O22      OBL     -0.630000       15.9994           0
      5401 MEMB     47       SLPC     C22      CTL2    -0.220000       12.0110           0
      5402 MEMB     47       SLPC     H2R      HAL2     0.900000E-01   1.00800           0
      5403 MEMB     47       SLPC     H2S      HAL2     0.900000E-01   1.00800           0
      5404 MEMB     47       SLPC     C3       CTL2     0.800000E-01   12.0110           0
      5405 MEMB     47       SLPC     HX       HAL2     0.900000E-01   1.00800           0
      5406 MEMB     47       SLPC     HY       HAL2     0.900000E-01   1.00800           0
      5407 MEMB     47       SLPC     O31      OSL     -0.490000       15.9994           0
      5408 MEMB     47       SLPC     C31      CL       0.900000       12.0110           0
      5409 MEMB     47       SLPC     O32      OBL     -0.630000       15.9994           0
      5410 MEMB     47       SLPC     C32      CTL2    -0.220000       12.0110           0
      5411 MEMB     47       SLPC     H2X      HAL2     0.900000E-01   1.00800           0
      5412 MEMB     47       SLPC     H2Y      HAL2     0.900000E-01   1.00800           0
      5413 MEMB     47       SLPC     C23      CTL2    -0.180000       12.0110           0
      5414 MEMB     47       SLPC     H3R      HAL2     0.900000E-01   1.00800           0
      5415 MEMB     47       SLPC     H3S      HAL2     0.900000E-01   1.00800           0
      5416 MEMB     47       SLPC     C24      CTL2    -0.180000       12.0110           0
      5417 MEMB     47       SLPC     H4R      HAL2     0.900000E-01   1.00800           0
      5418 MEMB     47       SLPC     H4S      HAL2     0.900000E-01   1.00800           0
      5419 MEMB     47       SLPC     C25      CTL2    -0.180000       12.0110           0
      5420 MEMB     47       SLPC     H5R      HAL2     0.900000E-01   1.00800           0
      5421 MEMB     47       SLPC     H5S      HAL2     0.900000E-01   1.00800           0
      5422 MEMB     47       SLPC     C26      CTL2    -0.180000       12.0110           0
      5423 MEMB     47       SLPC     H6R      HAL2     0.900000E-01   1.00800           0
      5424 MEMB     47       SLPC     H6S      HAL2     0.900000E-01   1.00800           0
      5425 MEMB     47       SLPC     C27      CTL2    -0.180000       12.0110           0
      5426 MEMB     47       SLPC     H7R      HAL2     0.900000E-01   1.00800           0
      5427 MEMB     47       SLPC     H7S      HAL2     0.900000E-01   1.00800           0
      5428 MEMB     47       SLPC     C28      CTL2    -0.180000       12.0110           0
      5429 MEMB     47       SLPC     H8R      HAL2     0.900000E-01   1.00800           0
      5430 MEMB     47       SLPC     H8S      HAL2     0.900000E-01   1.00800           0
      5431 MEMB     47       SLPC     C29      CEL1    -0.150000       12.0110           0
      5432 MEMB     47       SLPC     H9R      HEL1     0.150000       1.00800           0
      5433 MEMB     47       SLPC     C210     CEL1    -0.150000       12.0110           0
      5434 MEMB     47       SLPC     H10R     HEL1     0.150000       1.00800           0
      5435 MEMB     47       SLPC     C211     CTL2    -0.180000       12.0110           0
      5436 MEMB     47       SLPC     H11R     HAL2     0.900000E-01   1.00800           0
      5437 MEMB     47       SLPC     H11S     HAL2     0.900000E-01   1.00800           0
      5438 MEMB     47       SLPC     C212     CEL1    -0.150000       12.0110           0
      5439 MEMB     47       SLPC     H12R     HEL1     0.150000       1.00800           0
      5440 MEMB     47       SLPC     C213     CEL1    -0.150000       12.0110           0
      5441 MEMB     47       SLPC     H13R     HEL1     0.150000       1.00800           0
      5442 MEMB     47       SLPC     C214     CTL2    -0.180000       12.0110           0
      5443 MEMB     47       SLPC     H14R     HAL2     0.900000E-01   1.00800           0
      5444 MEMB     47       SLPC     H14S     HAL2     0.900000E-01   1.00800           0
      5445 MEMB     47       SLPC     C215     CTL2    -0.180000       12.0110           0
      5446 MEMB     47       SLPC     H15R     HAL2     0.900000E-01   1.00800           0
      5447 MEMB     47       SLPC     H15S     HAL2     0.900000E-01   1.00800           0
      5448 MEMB     47       SLPC     C216     CTL2    -0.180000       12.0110           0
      5449 MEMB     47       SLPC     H16R     HAL2     0.900000E-01   1.00800           0
      5450 MEMB     47       SLPC     H16S     HAL2     0.900000E-01   1.00800           0
      5451 MEMB     47       SLPC     C217     CTL2    -0.180000       12.0110           0
      5452 MEMB     47       SLPC     H17R     HAL2     0.900000E-01   1.00800           0
      5453 MEMB     47       SLPC     H17S     HAL2     0.900000E-01   1.00800           0
      5454 MEMB     47       SLPC     C218     CTL3    -0.270000       12.0110           0
      5455 MEMB     47       SLPC     H18R     HAL3     0.900000E-01   1.00800           0
      5456 MEMB     47       SLPC     H18S     HAL3     0.900000E-01   1.00800           0
      5457 MEMB     47       SLPC     H18T     HAL3     0.900000E-01   1.00800           0
      5458 MEMB     47       SLPC     C33      CTL2    -0.180000       12.0110           0
      5459 MEMB     47       SLPC     H3X      HAL2     0.900000E-01   1.00800           0
      5460 MEMB     47       SLPC     H3Y      HAL2     0.900000E-01   1.00800           0
      5461 MEMB     47       SLPC     C34      CTL2    -0.180000       12.0110           0
      5462 MEMB     47       SLPC     H4X      HAL2     0.900000E-01   1.00800           0
      5463 MEMB     47       SLPC     H4Y      HAL2     0.900000E-01   1.00800           0
      5464 MEMB     47       SLPC     C35      CTL2    -0.180000       12.0110           0
      5465 MEMB     47       SLPC     H5X      HAL2     0.900000E-01   1.00800           0
      5466 MEMB     47       SLPC     H5Y      HAL2     0.900000E-01   1.00800           0
      5467 MEMB     47       SLPC     C36      CTL2    -0.180000       12.0110           0
      5468 MEMB     47       SLPC     H6X      HAL2     0.900000E-01   1.00800           0
      5469 MEMB     47       SLPC     H6Y      HAL2     0.900000E-01   1.00800           0
      5470 MEMB     47       SLPC     C37      CTL2    -0.180000       12.0110           0
      5471 MEMB     47       SLPC     H7X      HAL2     0.900000E-01   1.00800           0
      5472 MEMB     47       SLPC     H7Y      HAL2     0.900000E-01   1.00800           0
      5473 MEMB     47       SLPC     C38      CTL2    -0.180000       12.0110           0
      5474 MEMB     47       SLPC     H8X      HAL2     0.900000E-01   1.00800           0
      5475 MEMB     47       SLPC     H8Y      HAL2     0.900000E-01   1.00800           0
      5476 MEMB     47       SLPC     C39      CTL2    -0.180000       12.0110           0
      5477 MEMB     47       SLPC     H9X      HAL2     0.900000E-01   1.00800           0
      5478 MEMB     47       SLPC     H9Y      HAL2     0.900000E-01   1.00800           0
      5479 MEMB     47       SLPC     C310     CTL2    -0.180000       12.0110           0
      5480 MEMB     47       SLPC     H10X     HAL2     0.900000E-01   1.00800           0
      5481 MEMB     47       SLPC     H10Y     HAL2     0.900000E-01   1.00800           0
      5482 MEMB     47       SLPC     C311     CTL2    -0.180000       12.0110           0
      5483 MEMB     47       SLPC     H11X     HAL2     0.900000E-01   1.00800           0
      5484 MEMB     47       SLPC     H11Y     HAL2     0.900000E-01   1.00800           0
      5485 MEMB     47       SLPC     C312     CTL2    -0.180000       12.0110           0
      5486 MEMB     47       SLPC     H12X     HAL2     0.900000E-01   1.00800           0
      5487 MEMB     47       SLPC     H12Y     HAL2     0.900000E-01   1.00800           0
      5488 MEMB     47       SLPC     C313     CTL2    -0.180000       12.0110           0
      5489 MEMB     47       SLPC     H13X     HAL2     0.900000E-01   1.00800           0
      5490 MEMB     47       SLPC     H13Y     HAL2     0.900000E-01   1.00800           0
      5491 MEMB     47       SLPC     C314     CTL2    -0.180000       12.0110           0
      5492 MEMB     47       SLPC     H14X     HAL2     0.900000E-01   1.00800           0
      5493 MEMB     47       SLPC     H14Y     HAL2     0.900000E-01   1.00800           0
      5494 MEMB     47       SLPC     C315     CTL2    -0.180000       12.0110           0
      5495 MEMB     47       SLPC     H15X     HAL2     0.900000E-01   1.00800           0
      5496 MEMB     47       SLPC     H15Y     HAL2     0.900000E-01   1.00800           0
      5497 MEMB     47       SLPC     C316     CTL2    -0.180000       12.0110           0
      5498 MEMB     47       SLPC     H16X     HAL2     0.900000E-01   1.00800           0
      5499 MEMB     47       SLPC     H16Y     HAL2     0.900000E-01   1.00800           0
      5500 MEMB     47       SLPC     C317     CTL2    -0.180000       12.0110           0
      5501 MEMB     47       SLPC     H17X     HAL2     0.900000E-01   1.00800           0
      5502 MEMB     47       SLPC     H17Y     HAL2     0.900000E-01   1.00800           0
      5503 MEMB     47       SLPC     C318     CTL3    -0.270000       12.0110           0
      5504 MEMB     47       SLPC     H18X     HAL3     0.900000E-01   1.00800           0
      5505 MEMB     47       SLPC     H18Y     HAL3     0.900000E-01   1.00800           0
      5506 MEMB     47       SLPC     H18Z     HAL3     0.900000E-01   1.00800           0
      5507 MEMB     48       CHL1     C3       CRL1     0.140000       12.0110           0
      5508 MEMB     48       CHL1     H3       HGA1     0.900000E-01   1.00800           0
      5509 MEMB     48       CHL1     O3       OHL     -0.660000       15.9994           0
      5510 MEMB     48       CHL1     H3'      HOL      0.430000       1.00800           0
      5511 MEMB     48       CHL1     C4       CRL2    -0.180000       12.0110           0
      5512 MEMB     48       CHL1     H4A      HGA2     0.900000E-01   1.00800           0
      5513 MEMB     48       CHL1     H4B      HGA2     0.900000E-01   1.00800           0
      5514 MEMB     48       CHL1     C5       CEL1      0.00000       12.0110           0
      5515 MEMB     48       CHL1     C6       CEL1    -0.150000       12.0110           0
      5516 MEMB     48       CHL1     H6       HEL1     0.150000       1.00800           0
      5517 MEMB     48       CHL1     C7       CRL2    -0.180000       12.0110           0
      5518 MEMB     48       CHL1     H7A      HGA2     0.900000E-01   1.00800           0
      5519 MEMB     48       CHL1     H7B      HGA2     0.900000E-01   1.00800           0
      5520 MEMB     48       CHL1     C8       CRL1    -0.900000E-01   12.0110           0
      5521 MEMB     48       CHL1     H8       HGA1     0.900000E-01   1.00800           0
      5522 MEMB     48       CHL1     C14      CRL1    -0.900000E-01   12.0110           0
      5523 MEMB     48       CHL1     H14      HGA1     0.900000E-01   1.00800           0
      5524 MEMB     48       CHL1     C15      CRL2    -0.180000       12.0110           0
      5525 MEMB     48       CHL1     H15A     HGA2     0.900000E-01   1.00800           0
      5526 MEMB     48       CHL1     H15B     HGA2     0.900000E-01   1.00800           0
      5527 MEMB     48       CHL1     C16      CRL2    -0.180000       12.0110           0
      5528 MEMB     48       CHL1     H16A     HGA2     0.900000E-01   1.00800           0
      5529 MEMB     48       CHL1     H16B     HGA2     0.900000E-01   1.00800           0
      5530 MEMB     48       CHL1     C17      CRL1    -0.900000E-01   12.0110           0
      5531 MEMB     48       CHL1     H17      HGA1     0.900000E-01   1.00800           0
      5532 MEMB     48       CHL1     C13      CRL1      0.00000       12.0110           0
      5533 MEMB     48       CHL1     C18      CTL3    -0.270000       12.0110           0
      5534 MEMB     48       CHL1     H18A     HAL3     0.900000E-01   1.00800           0
      5535 MEMB     48       CHL1     H18B     HAL3     0.900000E-01   1.00800           0
      5536 MEMB     48       CHL1     H18C     HAL3     0.900000E-01   1.00800           0
      5537 MEMB     48       CHL1     C12      CRL2    -0.180000       12.0110           0
      5538 MEMB     48       CHL1     H12A     HGA2     0.900000E-01   1.00800           0
      5539 MEMB     48       CHL1     H12B     HGA2     0.900000E-01   1.00800           0
      5540 MEMB     48       CHL1     C11      CRL2    -0.180000       12.0110           0
      5541 MEMB     48       CHL1     H11A     HGA2     0.900000E-01   1.00800           0
      5542 MEMB     48       CHL1     H11B     HGA2     0.900000E-01   1.00800           0
      5543 MEMB     48       CHL1     C9       CRL1    -0.900000E-01   12.0110           0
      5544 MEMB     48       CHL1     H9       HGA1     0.900000E-01   1.00800           0
      5545 MEMB     48       CHL1     C10      CRL1      0.00000       12.0110           0
      5546 MEMB     48       CHL1     C19      CTL3    -0.270000       12.0110           0
      5547 MEMB     48       CHL1     H19A     HAL3     0.900000E-01   1.00800           0
      5548 MEMB     48       CHL1     H19B     HAL3     0.900000E-01   1.00800           0
      5549 MEMB     48       CHL1     H19C     HAL3     0.900000E-01   1.00800           0
      5550 MEMB     48       CHL1     C1       CRL2    -0.180000       12.0110           0
      5551 MEMB     48       CHL1     H1A      HGA2     0.900000E-01   1.00800           0
      5552 MEMB     48       CHL1     H1B      HGA2     0.900000E-01   1.00800           0
      5553 MEMB     48       CHL1     C2       CRL2    -0.180000       12.0110           0
      5554 MEMB     48       CHL1     H2A      HGA2     0.900000E-01   1.00800           0
      5555 MEMB     48       CHL1     H2B      HGA2     0.900000E-01   1.00800           0
      5556 MEMB     48       CHL1     C20      CTL1    -0.900000E-01   12.0110           0
      5557 MEMB     48       CHL1     H20      HAL1     0.900000E-01   1.00800           0
      5558 MEMB     48       CHL1     C21      CTL3    -0.270000       12.0110           0
      5559 MEMB     48       CHL1     H21A     HAL3     0.900000E-01   1.00800           0
      5560 MEMB     48       CHL1     H21B     HAL3     0.900000E-01   1.00800           0
      5561 MEMB     48       CHL1     H21C     HAL3     0.900000E-01   1.00800           0
      5562 MEMB     48       CHL1     C22      CTL2    -0.180000       12.0110           0
      5563 MEMB     48       CHL1     H22A     HAL2     0.900000E-01   1.00800           0
      5564 MEMB     48       CHL1     H22B     HAL2     0.900000E-01   1.00800           0
      5565 MEMB     48       CHL1     C23      CTL2    -0.180000       12.0110           0
      5566 MEMB     48       CHL1     H23A     HAL2     0.900000E-01   1.00800           0
      5567 MEMB     48       CHL1     H23B     HAL2     0.900000E-01   1.00800           0
      5568 MEMB     48       CHL1     C24      CTL2    -0.180000       12.0110           0
      5569 MEMB     48       CHL1     H24A     HAL2     0.900000E-01   1.00800           0
      5570 MEMB     48       CHL1     H24B     HAL2     0.900000E-01   1.00800           0
      5571 MEMB     48       CHL1     C25      CTL1    -0.900000E-01   12.0110           0
      5572 MEMB     48       CHL1     H25      HAL1     0.900000E-01   1.00800           0
      5573 MEMB     48       CHL1     C26      CTL3    -0.270000       12.0110           0
      5574 MEMB     48       CHL1     H26A     HAL3     0.900000E-01   1.00800           0
      5575 MEMB     48       CHL1     H26B     HAL3     0.900000E-01   1.00800           0
      5576 MEMB     48       CHL1     H26C     HAL3     0.900000E-01   1.00800           0
      5577 MEMB     48       CHL1     C27      CTL3    -0.270000       12.0110           0
      5578 MEMB     48       CHL1     H27A     HAL3     0.900000E-01   1.00800           0
      5579 MEMB     48       CHL1     H27B     HAL3     0.900000E-01   1.00800           0
      5580 MEMB     48       CHL1     H27C     HAL3     0.900000E-01   1.00800           0
      5581 MEMB     49       OSM      N        NTL     -0.600000       14.0070           0
      5582 MEMB     49       OSM      C15      CTL5    -0.350000       12.0110           0
      5583 MEMB     49       OSM      H15A     HL       0.250000       1.00800           0
      5584 MEMB     49       OSM      H15B     HL       0.250000       1.00800           0
      5585 MEMB     49       OSM      H15C     HL       0.250000       1.00800           0
      5586 MEMB     49       OSM      C14      CTL5    -0.350000       12.0110           0
      5587 MEMB     49       OSM      H14A     HL       0.250000       1.00800           0
      5588 MEMB     49       OSM      H14B     HL       0.250000       1.00800           0
      5589 MEMB     49       OSM      H14C     HL       0.250000       1.00800           0
      5590 MEMB     49       OSM      C13      CTL5    -0.350000       12.0110           0
      5591 MEMB     49       OSM      H13A     HL       0.250000       1.00800           0
      5592 MEMB     49       OSM      H13B     HL       0.250000       1.00800           0
      5593 MEMB     49       OSM      H13C     HL       0.250000       1.00800           0
      5594 MEMB     49       OSM      C12      CTL2    -0.100000       12.0110           0
      5595 MEMB     49       OSM      H12A     HL       0.250000       1.00800           0
      5596 MEMB     49       OSM      H12B     HL       0.250000       1.00800           0
      5597 MEMB     49       OSM      C11      CTL2    -0.800000E-01   12.0110           0
      5598 MEMB     49       OSM      H11A     HAL2     0.900000E-01   1.00800           0
      5599 MEMB     49       OSM      H11B     HAL2     0.900000E-01   1.00800           0
      5600 MEMB     49       OSM      P        PL        1.50000       30.9740           0
      5601 MEMB     49       OSM      O13      O2L     -0.780000       15.9994           0
      5602 MEMB     49       OSM      O14      O2L     -0.780000       15.9994           0
      5603 MEMB     49       OSM      O11      OSLP    -0.570000       15.9994           0
      5604 MEMB     49       OSM      O12      OSLP    -0.570000       15.9994           0
      5605 MEMB     49       OSM      C1S      CTL2    -0.800000E-01   12.0110           0
      5606 MEMB     49       OSM      H1S      HAL2     0.900000E-01   1.00800           0
      5607 MEMB     49       OSM      H1T      HAL2     0.900000E-01   1.00800           0
      5608 MEMB     49       OSM      NF       NHL     -0.700000       14.0070           0
      5609 MEMB     49       OSM      HNF      H        0.350000       1.00800           0
      5610 MEMB     49       OSM      C2S      CTL1     0.300000       12.0110           0
      5611 MEMB     49       OSM      H2S      HAL1     0.500000E-01   1.00800           0
      5612 MEMB     49       OSM      C3S      CTO1     0.500000       12.0110           0
      5613 MEMB     49       OSM      H3S      HAL1    -0.110000       1.00800           0
      5614 MEMB     49       OSM      O3       OHL     -0.690000       15.9994           0
      5615 MEMB     49       OSM      HO3      HOL      0.300000       1.00800           0
      5616 MEMB     49       OSM      C4S      CEL3    -0.150000       12.0110           0
      5617 MEMB     49       OSM      H4S      HEL1     0.150000       1.00800           0
      5618 MEMB     49       OSM      C5S      CEL3    -0.150000       12.0110           0
      5619 MEMB     49       OSM      H5S      HEL1     0.150000       1.00800           0
      5620 MEMB     49       OSM      C6S      CTL2    -0.180000       12.0110           0
      5621 MEMB     49       OSM      H6S      HAL2     0.900000E-01   1.00800           0
      5622 MEMB     49       OSM      H6T      HAL2     0.900000E-01   1.00800           0
      5623 MEMB     49       OSM      C7S      CTL2    -0.180000       12.0110           0
      5624 MEMB     49       OSM      H7S      HAL2     0.900000E-01   1.00800           0
      5625 MEMB     49       OSM      H7T      HAL2     0.900000E-01   1.00800           0
      5626 MEMB     49       OSM      C8S      CTL2    -0.180000       12.0110           0
      5627 MEMB     49       OSM      H8S      HAL2     0.900000E-01   1.00800           0
      5628 MEMB     49       OSM      H8T      HAL2     0.900000E-01   1.00800           0
      5629 MEMB     49       OSM      C9S      CTL2    -0.180000       12.0110           0
      5630 MEMB     49       OSM      H9S      HAL2     0.900000E-01   1.00800           0
      5631 MEMB     49       OSM      H9T      HAL2     0.900000E-01   1.00800           0
      5632 MEMB     49       OSM      C10S     CTL2    -0.180000       12.0110           0
      5633 MEMB     49       OSM      H10S     HAL2     0.900000E-01   1.00800           0
      5634 MEMB     49       OSM      H10T     HAL2     0.900000E-01   1.00800           0
      5635 MEMB     49       OSM      C11S     CTL2    -0.180000       12.0110           0
      5636 MEMB     49       OSM      H11S     HAL2     0.900000E-01   1.00800           0
      5637 MEMB     49       OSM      H11T     HAL2     0.900000E-01   1.00800           0
      5638 MEMB     49       OSM      C12S     CTL2    -0.180000       12.0110           0
      5639 MEMB     49       OSM      H12S     HAL2     0.900000E-01   1.00800           0
      5640 MEMB     49       OSM      H12T     HAL2     0.900000E-01   1.00800           0
      5641 MEMB     49       OSM      C13S     CTL2    -0.180000       12.0110           0
      5642 MEMB     49       OSM      H13S     HAL2     0.900000E-01   1.00800           0
      5643 MEMB     49       OSM      H13T     HAL2     0.900000E-01   1.00800           0
      5644 MEMB     49       OSM      C14S     CTL2    -0.180000       12.0110           0
      5645 MEMB     49       OSM      H14S     HAL2     0.900000E-01   1.00800           0
      5646 MEMB     49       OSM      H14T     HAL2     0.900000E-01   1.00800           0
      5647 MEMB     49       OSM      C15S     CTL2    -0.180000       12.0110           0
      5648 MEMB     49       OSM      H15S     HAL2     0.900000E-01   1.00800           0
      5649 MEMB     49       OSM      H15T     HAL2     0.900000E-01   1.00800           0
      5650 MEMB     49       OSM      C16S     CTL2    -0.180000       12.0110           0
      5651 MEMB     49       OSM      H16S     HAL2     0.900000E-01   1.00800           0
      5652 MEMB     49       OSM      H16T     HAL2     0.900000E-01   1.00800           0
      5653 MEMB     49       OSM      C17S     CTL2    -0.180000       12.0110           0
      5654 MEMB     49       OSM      H17S     HAL2     0.900000E-01   1.00800           0
      5655 MEMB     49       OSM      H17T     HAL2     0.900000E-01   1.00800           0
      5656 MEMB     49       OSM      C18S     CTL3    -0.270000       12.0110           0
      5657 MEMB     49       OSM      H18S     HAL3     0.900000E-01   1.00800           0
      5658 MEMB     49       OSM      H18T     HAL3     0.900000E-01   1.00800           0
      5659 MEMB     49       OSM      H18U     HAL3     0.900000E-01   1.00800           0
      5660 MEMB     49       OSM      C1F      C        0.550000       12.0110           0
      5661 MEMB     49       OSM      OF       O       -0.600000       15.9994           0
      5662 MEMB     49       OSM      C2F      CTL2    -0.700000E-01   12.0110           0
      5663 MEMB     49       OSM      H2F      HAL2     0.600000E-01   1.00800           0
      5664 MEMB     49       OSM      H2G      HAL2     0.600000E-01   1.00800           0
      5665 MEMB     49       OSM      C3F      CTL2    -0.180000       12.0110           0
      5666 MEMB     49       OSM      H3F      HAL2     0.900000E-01   1.00800           0
      5667 MEMB     49       OSM      H3G      HAL2     0.900000E-01   1.00800           0
      5668 MEMB     49       OSM      C4F      CTL2    -0.180000       12.0110           0
      5669 MEMB     49       OSM      H4F      HAL2     0.900000E-01   1.00800           0
      5670 MEMB     49       OSM      H4G      HAL2     0.900000E-01   1.00800           0
      5671 MEMB     49       OSM      C5F      CTL2    -0.180000       12.0110           0
      5672 MEMB     49       OSM      H5F      HAL2     0.900000E-01   1.00800           0
      5673 MEMB     49       OSM      H5G      HAL2     0.900000E-01   1.00800           0
      5674 MEMB     49       OSM      C6F      CTL2    -0.180000       12.0110           0
      5675 MEMB     49       OSM      H6F      HAL2     0.900000E-01   1.00800           0
      5676 MEMB     49       OSM      H6G      HAL2     0.900000E-01   1.00800           0
      5677 MEMB     49       OSM      C7F      CTL2    -0.180000       12.0110           0
      5678 MEMB     49       OSM      H7F      HAL2     0.900000E-01   1.00800           0
      5679 MEMB     49       OSM      H7G      HAL2     0.900000E-01   1.00800           0
      5680 MEMB     49       OSM      C8F      CTL2    -0.180000       12.0110           0
      5681 MEMB     49       OSM      H8F      HAL2     0.900000E-01   1.00800           0
      5682 MEMB     49       OSM      H8G      HAL2     0.900000E-01   1.00800           0
      5683 MEMB     49       OSM      C9F      CEL1    -0.150000       12.0110           0
      5684 MEMB     49       OSM      H9F      HEL1     0.150000       1.00800           0
      5685 MEMB     49       OSM      C10F     CEL1    -0.150000       12.0110           0
      5686 MEMB     49       OSM      H10F     HEL1     0.150000       1.00800           0
      5687 MEMB     49       OSM      C11F     CTL2    -0.180000       12.0110           0
      5688 MEMB     49       OSM      H11F     HAL2     0.900000E-01   1.00800           0
      5689 MEMB     49       OSM      H11G     HAL2     0.900000E-01   1.00800           0
      5690 MEMB     49       OSM      C12F     CTL2    -0.180000       12.0110           0
      5691 MEMB     49       OSM      H12F     HAL2     0.900000E-01   1.00800           0
      5692 MEMB     49       OSM      H12G     HAL2     0.900000E-01   1.00800           0
      5693 MEMB     49       OSM      C13F     CTL2    -0.180000       12.0110           0
      5694 MEMB     49       OSM      H13F     HAL2     0.900000E-01   1.00800           0
      5695 MEMB     49       OSM      H13G     HAL2     0.900000E-01   1.00800           0
      5696 MEMB     49       OSM      C14F     CTL2    -0.180000       12.0110           0
      5697 MEMB     49       OSM      H14F     HAL2     0.900000E-01   1.00800           0
      5698 MEMB     49       OSM      H14G     HAL2     0.900000E-01   1.00800           0
      5699 MEMB     49       OSM      C15F     CTL2    -0.180000       12.0110           0
      5700 MEMB     49       OSM      H15F     HAL2     0.900000E-01   1.00800           0
      5701 MEMB     49       OSM      H15G     HAL2     0.900000E-01   1.00800           0
      5702 MEMB     49       OSM      C16F     CTL2    -0.180000       12.0110           0
      5703 MEMB     49       OSM      H16F     HAL2     0.900000E-01   1.00800           0
      5704 MEMB     49       OSM      H16G     HAL2     0.900000E-01   1.00800           0
      5705 MEMB     49       OSM      C17F     CTL2    -0.180000       12.0110           0
      5706 MEMB     49       OSM      H17F     HAL2     0.900000E-01   1.00800           0
      5707 MEMB     49       OSM      H17G     HAL2     0.900000E-01   1.00800           0
      5708 MEMB     49       OSM      C18F     CTL3    -0.270000       12.0110           0
      5709 MEMB     49       OSM      H18F     HAL3     0.900000E-01   1.00800           0
      5710 MEMB     49       OSM      H18G     HAL3     0.900000E-01   1.00800           0
      5711 MEMB     49       OSM      H18H     HAL3     0.900000E-01   1.00800           0
      5712 MEMB     50       CHL1     C3       CRL1     0.140000       12.0110           0
      5713 MEMB     50       CHL1     H3       HGA1     0.900000E-01   1.00800           0
      5714 MEMB     50       CHL1     O3       OHL     -0.660000       15.9994           0
      5715 MEMB     50       CHL1     H3'      HOL      0.430000       1.00800           0
      5716 MEMB     50       CHL1     C4       CRL2    -0.180000       12.0110           0
      5717 MEMB     50       CHL1     H4A      HGA2     0.900000E-01   1.00800           0
      5718 MEMB     50       CHL1     H4B      HGA2     0.900000E-01   1.00800           0
      5719 MEMB     50       CHL1     C5       CEL1      0.00000       12.0110           0
      5720 MEMB     50       CHL1     C6       CEL1    -0.150000       12.0110           0
      5721 MEMB     50       CHL1     H6       HEL1     0.150000       1.00800           0
      5722 MEMB     50       CHL1     C7       CRL2    -0.180000       12.0110           0
      5723 MEMB     50       CHL1     H7A      HGA2     0.900000E-01   1.00800           0
      5724 MEMB     50       CHL1     H7B      HGA2     0.900000E-01   1.00800           0
      5725 MEMB     50       CHL1     C8       CRL1    -0.900000E-01   12.0110           0
      5726 MEMB     50       CHL1     H8       HGA1     0.900000E-01   1.00800           0
      5727 MEMB     50       CHL1     C14      CRL1    -0.900000E-01   12.0110           0
      5728 MEMB     50       CHL1     H14      HGA1     0.900000E-01   1.00800           0
      5729 MEMB     50       CHL1     C15      CRL2    -0.180000       12.0110           0
      5730 MEMB     50       CHL1     H15A     HGA2     0.900000E-01   1.00800           0
      5731 MEMB     50       CHL1     H15B     HGA2     0.900000E-01   1.00800           0
      5732 MEMB     50       CHL1     C16      CRL2    -0.180000       12.0110           0
      5733 MEMB     50       CHL1     H16A     HGA2     0.900000E-01   1.00800           0
      5734 MEMB     50       CHL1     H16B     HGA2     0.900000E-01   1.00800           0
      5735 MEMB     50       CHL1     C17      CRL1    -0.900000E-01   12.0110           0
      5736 MEMB     50       CHL1     H17      HGA1     0.900000E-01   1.00800           0
      5737 MEMB     50       CHL1     C13      CRL1      0.00000       12.0110           0
      5738 MEMB     50       CHL1     C18      CTL3    -0.270000       12.0110           0
      5739 MEMB     50       CHL1     H18A     HAL3     0.900000E-01   1.00800           0
      5740 MEMB     50       CHL1     H18B     HAL3     0.900000E-01   1.00800           0
      5741 MEMB     50       CHL1     H18C     HAL3     0.900000E-01   1.00800           0
      5742 MEMB     50       CHL1     C12      CRL2    -0.180000       12.0110           0
      5743 MEMB     50       CHL1     H12A     HGA2     0.900000E-01   1.00800           0
      5744 MEMB     50       CHL1     H12B     HGA2     0.900000E-01   1.00800           0
      5745 MEMB     50       CHL1     C11      CRL2    -0.180000       12.0110           0
      5746 MEMB     50       CHL1     H11A     HGA2     0.900000E-01   1.00800           0
      5747 MEMB     50       CHL1     H11B     HGA2     0.900000E-01   1.00800           0
      5748 MEMB     50       CHL1     C9       CRL1    -0.900000E-01   12.0110           0
      5749 MEMB     50       CHL1     H9       HGA1     0.900000E-01   1.00800           0
      5750 MEMB     50       CHL1     C10      CRL1      0.00000       12.0110           0
      5751 MEMB     50       CHL1     C19      CTL3    -0.270000       12.0110           0
      5752 MEMB     50       CHL1     H19A     HAL3     0.900000E-01   1.00800           0
      5753 MEMB     50       CHL1     H19B     HAL3     0.900000E-01   1.00800           0
      5754 MEMB     50       CHL1     H19C     HAL3     0.900000E-01   1.00800           0
      5755 MEMB     50       CHL1     C1       CRL2    -0.180000       12.0110           0
      5756 MEMB     50       CHL1     H1A      HGA2     0.900000E-01   1.00800           0
      5757 MEMB     50       CHL1     H1B      HGA2     0.900000E-01   1.00800           0
      5758 MEMB     50       CHL1     C2       CRL2    -0.180000       12.0110           0
      5759 MEMB     50       CHL1     H2A      HGA2     0.900000E-01   1.00800           0
      5760 MEMB     50       CHL1     H2B      HGA2     0.900000E-01   1.00800           0
      5761 MEMB     50       CHL1     C20      CTL1    -0.900000E-01   12.0110           0
      5762 MEMB     50       CHL1     H20      HAL1     0.900000E-01   1.00800           0
      5763 MEMB     50       CHL1     C21      CTL3    -0.270000       12.0110           0
      5764 MEMB     50       CHL1     H21A     HAL3     0.900000E-01   1.00800           0
      5765 MEMB     50       CHL1     H21B     HAL3     0.900000E-01   1.00800           0
      5766 MEMB     50       CHL1     H21C     HAL3     0.900000E-01   1.00800           0
      5767 MEMB     50       CHL1     C22      CTL2    -0.180000       12.0110           0
      5768 MEMB     50       CHL1     H22A     HAL2     0.900000E-01   1.00800           0
      5769 MEMB     50       CHL1     H22B     HAL2     0.900000E-01   1.00800           0
      5770 MEMB     50       CHL1     C23      CTL2    -0.180000       12.0110           0
      5771 MEMB     50       CHL1     H23A     HAL2     0.900000E-01   1.00800           0
      5772 MEMB     50       CHL1     H23B     HAL2     0.900000E-01   1.00800           0
      5773 MEMB     50       CHL1     C24      CTL2    -0.180000       12.0110           0
      5774 MEMB     50       CHL1     H24A     HAL2     0.900000E-01   1.00800           0
      5775 MEMB     50       CHL1     H24B     HAL2     0.900000E-01   1.00800           0
      5776 MEMB     50       CHL1     C25      CTL1    -0.900000E-01   12.0110           0
      5777 MEMB     50       CHL1     H25      HAL1     0.900000E-01   1.00800           0
      5778 MEMB     50       CHL1     C26      CTL3    -0.270000       12.0110           0
      5779 MEMB     50       CHL1     H26A     HAL3     0.900000E-01   1.00800           0
      5780 MEMB     50       CHL1     H26B     HAL3     0.900000E-01   1.00800           0
      5781 MEMB     50       CHL1     H26C     HAL3     0.900000E-01   1.00800           0
      5782 MEMB     50       CHL1     C27      CTL3    -0.270000       12.0110           0
      5783 MEMB     50       CHL1     H27A     HAL3     0.900000E-01   1.00800           0
      5784 MEMB     50       CHL1     H27B     HAL3     0.900000E-01   1.00800           0
      5785 MEMB     50       CHL1     H27C     HAL3     0.900000E-01   1.00800           0
      5786 MEMB     51       OSM      N        NTL     -0.600000       14.0070           0
      5787 MEMB     51       OSM      C15      CTL5    -0.350000       12.0110           0
      5788 MEMB     51       OSM      H15A     HL       0.250000       1.00800           0
      5789 MEMB     51       OSM      H15B     HL       0.250000       1.00800           0
      5790 MEMB     51       OSM      H15C     HL       0.250000       1.00800           0
      5791 MEMB     51       OSM      C14      CTL5    -0.350000       12.0110           0
      5792 MEMB     51       OSM      H14A     HL       0.250000       1.00800           0
      5793 MEMB     51       OSM      H14B     HL       0.250000       1.00800           0
      5794 MEMB     51       OSM      H14C     HL       0.250000       1.00800           0
      5795 MEMB     51       OSM      C13      CTL5    -0.350000       12.0110           0
      5796 MEMB     51       OSM      H13A     HL       0.250000       1.00800           0
      5797 MEMB     51       OSM      H13B     HL       0.250000       1.00800           0
      5798 MEMB     51       OSM      H13C     HL       0.250000       1.00800           0
      5799 MEMB     51       OSM      C12      CTL2    -0.100000       12.0110           0
      5800 MEMB     51       OSM      H12A     HL       0.250000       1.00800           0
      5801 MEMB     51       OSM      H12B     HL       0.250000       1.00800           0
      5802 MEMB     51       OSM      C11      CTL2    -0.800000E-01   12.0110           0
      5803 MEMB     51       OSM      H11A     HAL2     0.900000E-01   1.00800           0
      5804 MEMB     51       OSM      H11B     HAL2     0.900000E-01   1.00800           0
      5805 MEMB     51       OSM      P        PL        1.50000       30.9740           0
      5806 MEMB     51       OSM      O13      O2L     -0.780000       15.9994           0
      5807 MEMB     51       OSM      O14      O2L     -0.780000       15.9994           0
      5808 MEMB     51       OSM      O11      OSLP    -0.570000       15.9994           0
      5809 MEMB     51       OSM      O12      OSLP    -0.570000       15.9994           0
      5810 MEMB     51       OSM      C1S      CTL2    -0.800000E-01   12.0110           0
      5811 MEMB     51       OSM      H1S      HAL2     0.900000E-01   1.00800           0
      5812 MEMB     51       OSM      H1T      HAL2     0.900000E-01   1.00800           0
      5813 MEMB     51       OSM      NF       NHL     -0.700000       14.0070           0
      5814 MEMB     51       OSM      HNF      H        0.350000       1.00800           0
      5815 MEMB     51       OSM      C2S      CTL1     0.300000       12.0110           0
      5816 MEMB     51       OSM      H2S      HAL1     0.500000E-01   1.00800           0
      5817 MEMB     51       OSM      C3S      CTO1     0.500000       12.0110           0
      5818 MEMB     51       OSM      H3S      HAL1    -0.110000       1.00800           0
      5819 MEMB     51       OSM      O3       OHL     -0.690000       15.9994           0
      5820 MEMB     51       OSM      HO3      HOL      0.300000       1.00800           0
      5821 MEMB     51       OSM      C4S      CEL3    -0.150000       12.0110           0
      5822 MEMB     51       OSM      H4S      HEL1     0.150000       1.00800           0
      5823 MEMB     51       OSM      C5S      CEL3    -0.150000       12.0110           0
      5824 MEMB     51       OSM      H5S      HEL1     0.150000       1.00800           0
      5825 MEMB     51       OSM      C6S      CTL2    -0.180000       12.0110           0
      5826 MEMB     51       OSM      H6S      HAL2     0.900000E-01   1.00800           0
      5827 MEMB     51       OSM      H6T      HAL2     0.900000E-01   1.00800           0
      5828 MEMB     51       OSM      C7S      CTL2    -0.180000       12.0110           0
      5829 MEMB     51       OSM      H7S      HAL2     0.900000E-01   1.00800           0
      5830 MEMB     51       OSM      H7T      HAL2     0.900000E-01   1.00800           0
      5831 MEMB     51       OSM      C8S      CTL2    -0.180000       12.0110           0
      5832 MEMB     51       OSM      H8S      HAL2     0.900000E-01   1.00800           0
      5833 MEMB     51       OSM      H8T      HAL2     0.900000E-01   1.00800           0
      5834 MEMB     51       OSM      C9S      CTL2    -0.180000       12.0110           0
      5835 MEMB     51       OSM      H9S      HAL2     0.900000E-01   1.00800           0
      5836 MEMB     51       OSM      H9T      HAL2     0.900000E-01   1.00800           0
      5837 MEMB     51       OSM      C10S     CTL2    -0.180000       12.0110           0
      5838 MEMB     51       OSM      H10S     HAL2     0.900000E-01   1.00800           0
      5839 MEMB     51       OSM      H10T     HAL2     0.900000E-01   1.00800           0
      5840 MEMB     51       OSM      C11S     CTL2    -0.180000       12.0110           0
      5841 MEMB     51       OSM      H11S     HAL2     0.900000E-01   1.00800           0
      5842 MEMB     51       OSM      H11T     HAL2     0.900000E-01   1.00800           0
      5843 MEMB     51       OSM      C12S     CTL2    -0.180000       12.0110           0
      5844 MEMB     51       OSM      H12S     HAL2     0.900000E-01   1.00800           0
      5845 MEMB     51       OSM      H12T     HAL2     0.900000E-01   1.00800           0
      5846 MEMB     51       OSM      C13S     CTL2    -0.180000       12.0110           0
      5847 MEMB     51       OSM      H13S     HAL2     0.900000E-01   1.00800           0
      5848 MEMB     51       OSM      H13T     HAL2     0.900000E-01   1.00800           0
      5849 MEMB     51       OSM      C14S     CTL2    -0.180000       12.0110           0
      5850 MEMB     51       OSM      H14S     HAL2     0.900000E-01   1.00800           0
      5851 MEMB     51       OSM      H14T     HAL2     0.900000E-01   1.00800           0
      5852 MEMB     51       OSM      C15S     CTL2    -0.180000       12.0110           0
      5853 MEMB     51       OSM      H15S     HAL2     0.900000E-01   1.00800           0
      5854 MEMB     51       OSM      H15T     HAL2     0.900000E-01   1.00800           0
      5855 MEMB     51       OSM      C16S     CTL2    -0.180000       12.0110           0
      5856 MEMB     51       OSM      H16S     HAL2     0.900000E-01   1.00800           0
      5857 MEMB     51       OSM      H16T     HAL2     0.900000E-01   1.00800           0
      5858 MEMB     51       OSM      C17S     CTL2    -0.180000       12.0110           0
      5859 MEMB     51       OSM      H17S     HAL2     0.900000E-01   1.00800           0
      5860 MEMB     51       OSM      H17T     HAL2     0.900000E-01   1.00800           0
      5861 MEMB     51       OSM      C18S     CTL3    -0.270000       12.0110           0
      5862 MEMB     51       OSM      H18S     HAL3     0.900000E-01   1.00800           0
      5863 MEMB     51       OSM      H18T     HAL3     0.900000E-01   1.00800           0
      5864 MEMB     51       OSM      H18U     HAL3     0.900000E-01   1.00800           0
      5865 MEMB     51       OSM      C1F      C        0.550000       12.0110           0
      5866 MEMB     51       OSM      OF       O       -0.600000       15.9994           0
      5867 MEMB     51       OSM      C2F      CTL2    -0.700000E-01   12.0110           0
      5868 MEMB     51       OSM      H2F      HAL2     0.600000E-01   1.00800           0
      5869 MEMB     51       OSM      H2G      HAL2     0.600000E-01   1.00800           0
      5870 MEMB     51       OSM      C3F      CTL2    -0.180000       12.0110           0
      5871 MEMB     51       OSM      H3F      HAL2     0.900000E-01   1.00800           0
      5872 MEMB     51       OSM      H3G      HAL2     0.900000E-01   1.00800           0
      5873 MEMB     51       OSM      C4F      CTL2    -0.180000       12.0110           0
      5874 MEMB     51       OSM      H4F      HAL2     0.900000E-01   1.00800           0
      5875 MEMB     51       OSM      H4G      HAL2     0.900000E-01   1.00800           0
      5876 MEMB     51       OSM      C5F      CTL2    -0.180000       12.0110           0
      5877 MEMB     51       OSM      H5F      HAL2     0.900000E-01   1.00800           0
      5878 MEMB     51       OSM      H5G      HAL2     0.900000E-01   1.00800           0
      5879 MEMB     51       OSM      C6F      CTL2    -0.180000       12.0110           0
      5880 MEMB     51       OSM      H6F      HAL2     0.900000E-01   1.00800           0
      5881 MEMB     51       OSM      H6G      HAL2     0.900000E-01   1.00800           0
      5882 MEMB     51       OSM      C7F      CTL2    -0.180000       12.0110           0
      5883 MEMB     51       OSM      H7F      HAL2     0.900000E-01   1.00800           0
      5884 MEMB     51       OSM      H7G      HAL2     0.900000E-01   1.00800           0
      5885 MEMB     51       OSM      C8F      CTL2    -0.180000       12.0110           0
      5886 MEMB     51       OSM      H8F      HAL2     0.900000E-01   1.00800           0
      5887 MEMB     51       OSM      H8G      HAL2     0.900000E-01   1.00800           0
      5888 MEMB     51       OSM      C9F      CEL1    -0.150000       12.0110           0
      5889 MEMB     51       OSM      H9F      HEL1     0.150000       1.00800           0
      5890 MEMB     51       OSM      C10F     CEL1    -0.150000       12.0110           0
      5891 MEMB     51       OSM      H10F     HEL1     0.150000       1.00800           0
      5892 MEMB     51       OSM      C11F     CTL2    -0.180000       12.0110           0
      5893 MEMB     51       OSM      H11F     HAL2     0.900000E-01   1.00800           0
      5894 MEMB     51       OSM      H11G     HAL2     0.900000E-01   1.00800           0
      5895 MEMB     51       OSM      C12F     CTL2    -0.180000       12.0110           0
      5896 MEMB     51       OSM      H12F     HAL2     0.900000E-01   1.00800           0
      5897 MEMB     51       OSM      H12G     HAL2     0.900000E-01   1.00800           0
      5898 MEMB     51       OSM      C13F     CTL2    -0.180000       12.0110           0
      5899 MEMB     51       OSM      H13F     HAL2     0.900000E-01   1.00800           0
      5900 MEMB     51       OSM      H13G     HAL2     0.900000E-01   1.00800           0
      5901 MEMB     51       OSM      C14F     CTL2    -0.180000       12.0110           0
      5902 MEMB     51       OSM      H14F     HAL2     0.900000E-01   1.00800           0
      5903 MEMB     51       OSM      H14G     HAL2     0.900000E-01   1.00800           0
      5904 MEMB     51       OSM      C15F     CTL2    -0.180000       12.0110           0
      5905 MEMB     51       OSM      H15F     HAL2     0.900000E-01   1.00800           0
      5906 MEMB     51       OSM      H15G     HAL2     0.900000E-01   1.00800           0
      5907 MEMB     51       OSM      C16F     CTL2    -0.180000       12.0110           0
      5908 MEMB     51       OSM      H16F     HAL2     0.900000E-01   1.00800           0
      5909 MEMB     51       OSM      H16G     HAL2     0.900000E-01   1.00800           0
      5910 MEMB     51       OSM      C17F     CTL2    -0.180000       12.0110           0
      5911 MEMB     51       OSM      H17F     HAL2     0.900000E-01   1.00800           0
      5912 MEMB     51       OSM      H17G     HAL2     0.900000E-01   1.00800           0
      5913 MEMB     51       OSM      C18F     CTL3    -0.270000       12.0110           0
      5914 MEMB     51       OSM      H18F     HAL3     0.900000E-01   1.00800           0
      5915 MEMB     51       OSM      H18G     HAL3     0.900000E-01   1.00800           0
      5916 MEMB     51       OSM      H18H     HAL3     0.900000E-01   1.00800           0
      5917 MEMB     52       CHL1     C3       CRL1     0.140000       12.0110           0
      5918 MEMB     52       CHL1     H3       HGA1     0.900000E-01   1.00800           0
      5919 MEMB     52       CHL1     O3       OHL     -0.660000       15.9994           0
      5920 MEMB     52       CHL1     H3'      HOL      0.430000       1.00800           0
      5921 MEMB     52       CHL1     C4       CRL2    -0.180000       12.0110           0
      5922 MEMB     52       CHL1     H4A      HGA2     0.900000E-01   1.00800           0
      5923 MEMB     52       CHL1     H4B      HGA2     0.900000E-01   1.00800           0
      5924 MEMB     52       CHL1     C5       CEL1      0.00000       12.0110           0
      5925 MEMB     52       CHL1     C6       CEL1    -0.150000       12.0110           0
      5926 MEMB     52       CHL1     H6       HEL1     0.150000       1.00800           0
      5927 MEMB     52       CHL1     C7       CRL2    -0.180000       12.0110           0
      5928 MEMB     52       CHL1     H7A      HGA2     0.900000E-01   1.00800           0
      5929 MEMB     52       CHL1     H7B      HGA2     0.900000E-01   1.00800           0
      5930 MEMB     52       CHL1     C8       CRL1    -0.900000E-01   12.0110           0
      5931 MEMB     52       CHL1     H8       HGA1     0.900000E-01   1.00800           0
      5932 MEMB     52       CHL1     C14      CRL1    -0.900000E-01   12.0110           0
      5933 MEMB     52       CHL1     H14      HGA1     0.900000E-01   1.00800           0
      5934 MEMB     52       CHL1     C15      CRL2    -0.180000       12.0110           0
      5935 MEMB     52       CHL1     H15A     HGA2     0.900000E-01   1.00800           0
      5936 MEMB     52       CHL1     H15B     HGA2     0.900000E-01   1.00800           0
      5937 MEMB     52       CHL1     C16      CRL2    -0.180000       12.0110           0
      5938 MEMB     52       CHL1     H16A     HGA2     0.900000E-01   1.00800           0
      5939 MEMB     52       CHL1     H16B     HGA2     0.900000E-01   1.00800           0
      5940 MEMB     52       CHL1     C17      CRL1    -0.900000E-01   12.0110           0
      5941 MEMB     52       CHL1     H17      HGA1     0.900000E-01   1.00800           0
      5942 MEMB     52       CHL1     C13      CRL1      0.00000       12.0110           0
      5943 MEMB     52       CHL1     C18      CTL3    -0.270000       12.0110           0
      5944 MEMB     52       CHL1     H18A     HAL3     0.900000E-01   1.00800           0
      5945 MEMB     52       CHL1     H18B     HAL3     0.900000E-01   1.00800           0
      5946 MEMB     52       CHL1     H18C     HAL3     0.900000E-01   1.00800           0
      5947 MEMB     52       CHL1     C12      CRL2    -0.180000       12.0110           0
      5948 MEMB     52       CHL1     H12A     HGA2     0.900000E-01   1.00800           0
      5949 MEMB     52       CHL1     H12B     HGA2     0.900000E-01   1.00800           0
      5950 MEMB     52       CHL1     C11      CRL2    -0.180000       12.0110           0
      5951 MEMB     52       CHL1     H11A     HGA2     0.900000E-01   1.00800           0
      5952 MEMB     52       CHL1     H11B     HGA2     0.900000E-01   1.00800           0
      5953 MEMB     52       CHL1     C9       CRL1    -0.900000E-01   12.0110           0
      5954 MEMB     52       CHL1     H9       HGA1     0.900000E-01   1.00800           0
      5955 MEMB     52       CHL1     C10      CRL1      0.00000       12.0110           0
      5956 MEMB     52       CHL1     C19      CTL3    -0.270000       12.0110           0
      5957 MEMB     52       CHL1     H19A     HAL3     0.900000E-01   1.00800           0
      5958 MEMB     52       CHL1     H19B     HAL3     0.900000E-01   1.00800           0
      5959 MEMB     52       CHL1     H19C     HAL3     0.900000E-01   1.00800           0
      5960 MEMB     52       CHL1     C1       CRL2    -0.180000       12.0110           0
      5961 MEMB     52       CHL1     H1A      HGA2     0.900000E-01   1.00800           0
      5962 MEMB     52       CHL1     H1B      HGA2     0.900000E-01   1.00800           0
      5963 MEMB     52       CHL1     C2       CRL2    -0.180000       12.0110           0
      5964 MEMB     52       CHL1     H2A      HGA2     0.900000E-01   1.00800           0
      5965 MEMB     52       CHL1     H2B      HGA2     0.900000E-01   1.00800           0
      5966 MEMB     52       CHL1     C20      CTL1    -0.900000E-01   12.0110           0
      5967 MEMB     52       CHL1     H20      HAL1     0.900000E-01   1.00800           0
      5968 MEMB     52       CHL1     C21      CTL3    -0.270000       12.0110           0
      5969 MEMB     52       CHL1     H21A     HAL3     0.900000E-01   1.00800           0
      5970 MEMB     52       CHL1     H21B     HAL3     0.900000E-01   1.00800           0
      5971 MEMB     52       CHL1     H21C     HAL3     0.900000E-01   1.00800           0
      5972 MEMB     52       CHL1     C22      CTL2    -0.180000       12.0110           0
      5973 MEMB     52       CHL1     H22A     HAL2     0.900000E-01   1.00800           0
      5974 MEMB     52       CHL1     H22B     HAL2     0.900000E-01   1.00800           0
      5975 MEMB     52       CHL1     C23      CTL2    -0.180000       12.0110           0
      5976 MEMB     52       CHL1     H23A     HAL2     0.900000E-01   1.00800           0
      5977 MEMB     52       CHL1     H23B     HAL2     0.900000E-01   1.00800           0
      5978 MEMB     52       CHL1     C24      CTL2    -0.180000       12.0110           0
      5979 MEMB     52       CHL1     H24A     HAL2     0.900000E-01   1.00800           0
      5980 MEMB     52       CHL1     H24B     HAL2     0.900000E-01   1.00800           0
      5981 MEMB     52       CHL1     C25      CTL1    -0.900000E-01   12.0110           0
      5982 MEMB     52       CHL1     H25      HAL1     0.900000E-01   1.00800           0
      5983 MEMB     52       CHL1     C26      CTL3    -0.270000       12.0110           0
      5984 MEMB     52       CHL1     H26A     HAL3     0.900000E-01   1.00800           0
      5985 MEMB     52       CHL1     H26B     HAL3     0.900000E-01   1.00800           0
      5986 MEMB     52       CHL1     H26C     HAL3     0.900000E-01   1.00800           0
      5987 MEMB     52       CHL1     C27      CTL3    -0.270000       12.0110           0
      5988 MEMB     52       CHL1     H27A     HAL3     0.900000E-01   1.00800           0
      5989 MEMB     52       CHL1     H27B     HAL3     0.900000E-01   1.00800           0
      5990 MEMB     52       CHL1     H27C     HAL3     0.900000E-01   1.00800           0
      5991 MEMB     53       CHL1     C3       CRL1     0.140000       12.0110           0
      5992 MEMB     53       CHL1     H3       HGA1     0.900000E-01   1.00800           0
      5993 MEMB     53       CHL1     O3       OHL     -0.660000       15.9994           0
      5994 MEMB     53       CHL1     H3'      HOL      0.430000       1.00800           0
      5995 MEMB     53       CHL1     C4       CRL2    -0.180000       12.0110           0
      5996 MEMB     53       CHL1     H4A      HGA2     0.900000E-01   1.00800           0
      5997 MEMB     53       CHL1     H4B      HGA2     0.900000E-01   1.00800           0
      5998 MEMB     53       CHL1     C5       CEL1      0.00000       12.0110           0
      5999 MEMB     53       CHL1     C6       CEL1    -0.150000       12.0110           0
      6000 MEMB     53       CHL1     H6       HEL1     0.150000       1.00800           0
      6001 MEMB     53       CHL1     C7       CRL2    -0.180000       12.0110           0
      6002 MEMB     53       CHL1     H7A      HGA2     0.900000E-01   1.00800           0
      6003 MEMB     53       CHL1     H7B      HGA2     0.900000E-01   1.00800           0
      6004 MEMB     53       CHL1     C8       CRL1    -0.900000E-01   12.0110           0
      6005 MEMB     53       CHL1     H8       HGA1     0.900000E-01   1.00800           0
      6006 MEMB     53       CHL1     C14      CRL1    -0.900000E-01   12.0110           0
      6007 MEMB     53       CHL1     H14      HGA1     0.900000E-01   1.00800           0
      6008 MEMB     53       CHL1     C15      CRL2    -0.180000       12.0110           0
      6009 MEMB     53       CHL1     H15A     HGA2     0.900000E-01   1.00800           0
      6010 MEMB     53       CHL1     H15B     HGA2     0.900000E-01   1.00800           0
      6011 MEMB     53       CHL1     C16      CRL2    -0.180000       12.0110           0
      6012 MEMB     53       CHL1     H16A     HGA2     0.900000E-01   1.00800           0
      6013 MEMB     53       CHL1     H16B     HGA2     0.900000E-01   1.00800           0
      6014 MEMB     53       CHL1     C17      CRL1    -0.900000E-01   12.0110           0
      6015 MEMB     53       CHL1     H17      HGA1     0.900000E-01   1.00800           0
      6016 MEMB     53       CHL1     C13      CRL1      0.00000       12.0110           0
      6017 MEMB     53       CHL1     C18      CTL3    -0.270000       12.0110           0
      6018 MEMB     53       CHL1     H18A     HAL3     0.900000E-01   1.00800           0
      6019 MEMB     53       CHL1     H18B     HAL3     0.900000E-01   1.00800           0
      6020 MEMB     53       CHL1     H18C     HAL3     0.900000E-01   1.00800           0
      6021 MEMB     53       CHL1     C12      CRL2    -0.180000       12.0110           0
      6022 MEMB     53       CHL1     H12A     HGA2     0.900000E-01   1.00800           0
      6023 MEMB     53       CHL1     H12B     HGA2     0.900000E-01   1.00800           0
      6024 MEMB     53       CHL1     C11      CRL2    -0.180000       12.0110           0
      6025 MEMB     53       CHL1     H11A     HGA2     0.900000E-01   1.00800           0
      6026 MEMB     53       CHL1     H11B     HGA2     0.900000E-01   1.00800           0
      6027 MEMB     53       CHL1     C9       CRL1    -0.900000E-01   12.0110           0
      6028 MEMB     53       CHL1     H9       HGA1     0.900000E-01   1.00800           0
      6029 MEMB     53       CHL1     C10      CRL1      0.00000       12.0110           0
      6030 MEMB     53       CHL1     C19      CTL3    -0.270000       12.0110           0
      6031 MEMB     53       CHL1     H19A     HAL3     0.900000E-01   1.00800           0
      6032 MEMB     53       CHL1     H19B     HAL3     0.900000E-01   1.00800           0
      6033 MEMB     53       CHL1     H19C     HAL3     0.900000E-01   1.00800           0
      6034 MEMB     53       CHL1     C1       CRL2    -0.180000       12.0110           0
      6035 MEMB     53       CHL1     H1A      HGA2     0.900000E-01   1.00800           0
      6036 MEMB     53       CHL1     H1B      HGA2     0.900000E-01   1.00800           0
      6037 MEMB     53       CHL1     C2       CRL2    -0.180000       12.0110           0
      6038 MEMB     53       CHL1     H2A      HGA2     0.900000E-01   1.00800           0
      6039 MEMB     53       CHL1     H2B      HGA2     0.900000E-01   1.00800           0
      6040 MEMB     53       CHL1     C20      CTL1    -0.900000E-01   12.0110           0
      6041 MEMB     53       CHL1     H20      HAL1     0.900000E-01   1.00800           0
      6042 MEMB     53       CHL1     C21      CTL3    -0.270000       12.0110           0
      6043 MEMB     53       CHL1     H21A     HAL3     0.900000E-01   1.00800           0
      6044 MEMB     53       CHL1     H21B     HAL3     0.900000E-01   1.00800           0
      6045 MEMB     53       CHL1     H21C     HAL3     0.900000E-01   1.00800           0
      6046 MEMB     53       CHL1     C22      CTL2    -0.180000       12.0110           0
      6047 MEMB     53       CHL1     H22A     HAL2     0.900000E-01   1.00800           0
      6048 MEMB     53       CHL1     H22B     HAL2     0.900000E-01   1.00800           0
      6049 MEMB     53       CHL1     C23      CTL2    -0.180000       12.0110           0
      6050 MEMB     53       CHL1     H23A     HAL2     0.900000E-01   1.00800           0
      6051 MEMB     53       CHL1     H23B     HAL2     0.900000E-01   1.00800           0
      6052 MEMB     53       CHL1     C24      CTL2    -0.180000       12.0110           0
      6053 MEMB     53       CHL1     H24A     HAL2     0.900000E-01   1.00800           0
      6054 MEMB     53       CHL1     H24B     HAL2     0.900000E-01   1.00800           0
      6055 MEMB     53       CHL1     C25      CTL1    -0.900000E-01   12.0110           0
      6056 MEMB     53       CHL1     H25      HAL1     0.900000E-01   1.00800           0
      6057 MEMB     53       CHL1     C26      CTL3    -0.270000       12.0110           0
      6058 MEMB     53       CHL1     H26A     HAL3     0.900000E-01   1.00800           0
      6059 MEMB     53       CHL1     H26B     HAL3     0.900000E-01   1.00800           0
      6060 MEMB     53       CHL1     H26C     HAL3     0.900000E-01   1.00800           0
      6061 MEMB     53       CHL1     C27      CTL3    -0.270000       12.0110           0
      6062 MEMB     53       CHL1     H27A     HAL3     0.900000E-01   1.00800           0
      6063 MEMB     53       CHL1     H27B     HAL3     0.900000E-01   1.00800           0
      6064 MEMB     53       CHL1     H27C     HAL3     0.900000E-01   1.00800           0
      6065 MEMB     54       OSM      N        NTL     -0.600000       14.0070           0
      6066 MEMB     54       OSM      C15      CTL5    -0.350000       12.0110           0
      6067 MEMB     54       OSM      H15A     HL       0.250000       1.00800           0
      6068 MEMB     54       OSM      H15B     HL       0.250000       1.00800           0
      6069 MEMB     54       OSM      H15C     HL       0.250000       1.00800           0
      6070 MEMB     54       OSM      C14      CTL5    -0.350000       12.0110           0
      6071 MEMB     54       OSM      H14A     HL       0.250000       1.00800           0
      6072 MEMB     54       OSM      H14B     HL       0.250000       1.00800           0
      6073 MEMB     54       OSM      H14C     HL       0.250000       1.00800           0
      6074 MEMB     54       OSM      C13      CTL5    -0.350000       12.0110           0
      6075 MEMB     54       OSM      H13A     HL       0.250000       1.00800           0
      6076 MEMB     54       OSM      H13B     HL       0.250000       1.00800           0
      6077 MEMB     54       OSM      H13C     HL       0.250000       1.00800           0
      6078 MEMB     54       OSM      C12      CTL2    -0.100000       12.0110           0
      6079 MEMB     54       OSM      H12A     HL       0.250000       1.00800           0
      6080 MEMB     54       OSM      H12B     HL       0.250000       1.00800           0
      6081 MEMB     54       OSM      C11      CTL2    -0.800000E-01   12.0110           0
      6082 MEMB     54       OSM      H11A     HAL2     0.900000E-01   1.00800           0
      6083 MEMB     54       OSM      H11B     HAL2     0.900000E-01   1.00800           0
      6084 MEMB     54       OSM      P        PL        1.50000       30.9740           0
      6085 MEMB     54       OSM      O13      O2L     -0.780000       15.9994           0
      6086 MEMB     54       OSM      O14      O2L     -0.780000       15.9994           0
      6087 MEMB     54       OSM      O11      OSLP    -0.570000       15.9994           0
      6088 MEMB     54       OSM      O12      OSLP    -0.570000       15.9994           0
      6089 MEMB     54       OSM      C1S      CTL2    -0.800000E-01   12.0110           0
      6090 MEMB     54       OSM      H1S      HAL2     0.900000E-01   1.00800           0
      6091 MEMB     54       OSM      H1T      HAL2     0.900000E-01   1.00800           0
      6092 MEMB     54       OSM      NF       NHL     -0.700000       14.0070           0
      6093 MEMB     54       OSM      HNF      H        0.350000       1.00800           0
      6094 MEMB     54       OSM      C2S      CTL1     0.300000       12.0110           0
      6095 MEMB     54       OSM      H2S      HAL1     0.500000E-01   1.00800           0
      6096 MEMB     54       OSM      C3S      CTO1     0.500000       12.0110           0
      6097 MEMB     54       OSM      H3S      HAL1    -0.110000       1.00800           0
      6098 MEMB     54       OSM      O3       OHL     -0.690000       15.9994           0
      6099 MEMB     54       OSM      HO3      HOL      0.300000       1.00800           0
      6100 MEMB     54       OSM      C4S      CEL3    -0.150000       12.0110           0
      6101 MEMB     54       OSM      H4S      HEL1     0.150000       1.00800           0
      6102 MEMB     54       OSM      C5S      CEL3    -0.150000       12.0110           0
      6103 MEMB     54       OSM      H5S      HEL1     0.150000       1.00800           0
      6104 MEMB     54       OSM      C6S      CTL2    -0.180000       12.0110           0
      6105 MEMB     54       OSM      H6S      HAL2     0.900000E-01   1.00800           0
      6106 MEMB     54       OSM      H6T      HAL2     0.900000E-01   1.00800           0
      6107 MEMB     54       OSM      C7S      CTL2    -0.180000       12.0110           0
      6108 MEMB     54       OSM      H7S      HAL2     0.900000E-01   1.00800           0
      6109 MEMB     54       OSM      H7T      HAL2     0.900000E-01   1.00800           0
      6110 MEMB     54       OSM      C8S      CTL2    -0.180000       12.0110           0
      6111 MEMB     54       OSM      H8S      HAL2     0.900000E-01   1.00800           0
      6112 MEMB     54       OSM      H8T      HAL2     0.900000E-01   1.00800           0
      6113 MEMB     54       OSM      C9S      CTL2    -0.180000       12.0110           0
      6114 MEMB     54       OSM      H9S      HAL2     0.900000E-01   1.00800           0
      6115 MEMB     54       OSM      H9T      HAL2     0.900000E-01   1.00800           0
      6116 MEMB     54       OSM      C10S     CTL2    -0.180000       12.0110           0
      6117 MEMB     54       OSM      H10S     HAL2     0.900000E-01   1.00800           0
      6118 MEMB     54       OSM      H10T     HAL2     0.900000E-01   1.00800           0
      6119 MEMB     54       OSM      C11S     CTL2    -0.180000       12.0110           0
      6120 MEMB     54       OSM      H11S     HAL2     0.900000E-01   1.00800           0
      6121 MEMB     54       OSM      H11T     HAL2     0.900000E-01   1.00800           0
      6122 MEMB     54       OSM      C12S     CTL2    -0.180000       12.0110           0
      6123 MEMB     54       OSM      H12S     HAL2     0.900000E-01   1.00800           0
      6124 MEMB     54       OSM      H12T     HAL2     0.900000E-01   1.00800           0
      6125 MEMB     54       OSM      C13S     CTL2    -0.180000       12.0110           0
      6126 MEMB     54       OSM      H13S     HAL2     0.900000E-01   1.00800           0
      6127 MEMB     54       OSM      H13T     HAL2     0.900000E-01   1.00800           0
      6128 MEMB     54       OSM      C14S     CTL2    -0.180000       12.0110           0
      6129 MEMB     54       OSM      H14S     HAL2     0.900000E-01   1.00800           0
      6130 MEMB     54       OSM      H14T     HAL2     0.900000E-01   1.00800           0
      6131 MEMB     54       OSM      C15S     CTL2    -0.180000       12.0110           0
      6132 MEMB     54       OSM      H15S     HAL2     0.900000E-01   1.00800           0
      6133 MEMB     54       OSM      H15T     HAL2     0.900000E-01   1.00800           0
      6134 MEMB     54       OSM      C16S     CTL2    -0.180000       12.0110           0
      6135 MEMB     54       OSM      H16S     HAL2     0.900000E-01   1.00800           0
      6136 MEMB     54       OSM      H16T     HAL2     0.900000E-01   1.00800           0
      6137 MEMB     54       OSM      C17S     CTL2    -0.180000       12.0110           0
      6138 MEMB     54       OSM      H17S     HAL2     0.900000E-01   1.00800           0
      6139 MEMB     54       OSM      H17T     HAL2     0.900000E-01   1.00800           0
      6140 MEMB     54       OSM      C18S     CTL3    -0.270000       12.0110           0
      6141 MEMB     54       OSM      H18S     HAL3     0.900000E-01   1.00800           0
      6142 MEMB     54       OSM      H18T     HAL3     0.900000E-01   1.00800           0
      6143 MEMB     54       OSM      H18U     HAL3     0.900000E-01   1.00800           0
      6144 MEMB     54       OSM      C1F      C        0.550000       12.0110           0
      6145 MEMB     54       OSM      OF       O       -0.600000       15.9994           0
      6146 MEMB     54       OSM      C2F      CTL2    -0.700000E-01   12.0110           0
      6147 MEMB     54       OSM      H2F      HAL2     0.600000E-01   1.00800           0
      6148 MEMB     54       OSM      H2G      HAL2     0.600000E-01   1.00800           0
      6149 MEMB     54       OSM      C3F      CTL2    -0.180000       12.0110           0
      6150 MEMB     54       OSM      H3F      HAL2     0.900000E-01   1.00800           0
      6151 MEMB     54       OSM      H3G      HAL2     0.900000E-01   1.00800           0
      6152 MEMB     54       OSM      C4F      CTL2    -0.180000       12.0110           0
      6153 MEMB     54       OSM      H4F      HAL2     0.900000E-01   1.00800           0
      6154 MEMB     54       OSM      H4G      HAL2     0.900000E-01   1.00800           0
      6155 MEMB     54       OSM      C5F      CTL2    -0.180000       12.0110           0
      6156 MEMB     54       OSM      H5F      HAL2     0.900000E-01   1.00800           0
      6157 MEMB     54       OSM      H5G      HAL2     0.900000E-01   1.00800           0
      6158 MEMB     54       OSM      C6F      CTL2    -0.180000       12.0110           0
      6159 MEMB     54       OSM      H6F      HAL2     0.900000E-01   1.00800           0
      6160 MEMB     54       OSM      H6G      HAL2     0.900000E-01   1.00800           0
      6161 MEMB     54       OSM      C7F      CTL2    -0.180000       12.0110           0
      6162 MEMB     54       OSM      H7F      HAL2     0.900000E-01   1.00800           0
      6163 MEMB     54       OSM      H7G      HAL2     0.900000E-01   1.00800           0
      6164 MEMB     54       OSM      C8F      CTL2    -0.180000       12.0110           0
      6165 MEMB     54       OSM      H8F      HAL2     0.900000E-01   1.00800           0
      6166 MEMB     54       OSM      H8G      HAL2     0.900000E-01   1.00800           0
      6167 MEMB     54       OSM      C9F      CEL1    -0.150000       12.0110           0
      6168 MEMB     54       OSM      H9F      HEL1     0.150000       1.00800           0
      6169 MEMB     54       OSM      C10F     CEL1    -0.150000       12.0110           0
      6170 MEMB     54       OSM      H10F     HEL1     0.150000       1.00800           0
      6171 MEMB     54       OSM      C11F     CTL2    -0.180000       12.0110           0
      6172 MEMB     54       OSM      H11F     HAL2     0.900000E-01   1.00800           0
      6173 MEMB     54       OSM      H11G     HAL2     0.900000E-01   1.00800           0
      6174 MEMB     54       OSM      C12F     CTL2    -0.180000       12.0110           0
      6175 MEMB     54       OSM      H12F     HAL2     0.900000E-01   1.00800           0
      6176 MEMB     54       OSM      H12G     HAL2     0.900000E-01   1.00800           0
      6177 MEMB     54       OSM      C13F     CTL2    -0.180000       12.0110           0
      6178 MEMB     54       OSM      H13F     HAL2     0.900000E-01   1.00800           0
      6179 MEMB     54       OSM      H13G     HAL2     0.900000E-01   1.00800           0
      6180 MEMB     54       OSM      C14F     CTL2    -0.180000       12.0110           0
      6181 MEMB     54       OSM      H14F     HAL2     0.900000E-01   1.00800           0
      6182 MEMB     54       OSM      H14G     HAL2     0.900000E-01   1.00800           0
      6183 MEMB     54       OSM      C15F     CTL2    -0.180000       12.0110           0
      6184 MEMB     54       OSM      H15F     HAL2     0.900000E-01   1.00800           0
      6185 MEMB     54       OSM      H15G     HAL2     0.900000E-01   1.00800           0
      6186 MEMB     54       OSM      C16F     CTL2    -0.180000       12.0110           0
      6187 MEMB     54       OSM      H16F     HAL2     0.900000E-01   1.00800           0
      6188 MEMB     54       OSM      H16G     HAL2     0.900000E-01   1.00800           0
      6189 MEMB     54       OSM      C17F     CTL2    -0.180000       12.0110           0
      6190 MEMB     54       OSM      H17F     HAL2     0.900000E-01   1.00800           0
      6191 MEMB     54       OSM      H17G     HAL2     0.900000E-01   1.00800           0
      6192 MEMB     54       OSM      C18F     CTL3    -0.270000       12.0110           0
      6193 MEMB     54       OSM      H18F     HAL3     0.900000E-01   1.00800           0
      6194 MEMB     54       OSM      H18G     HAL3     0.900000E-01   1.00800           0
      6195 MEMB     54       OSM      H18H     HAL3     0.900000E-01   1.00800           0
      6196 MEMB     55       SAPC     N        NTL     -0.600000       14.0070           0
      6197 MEMB     55       SAPC     C12      CTL2    -0.100000       12.0110           0
      6198 MEMB     55       SAPC     H12A     HL       0.250000       1.00800           0
      6199 MEMB     55       SAPC     H12B     HL       0.250000       1.00800           0
      6200 MEMB     55       SAPC     C13      CTL5    -0.350000       12.0110           0
      6201 MEMB     55       SAPC     H13A     HL       0.250000       1.00800           0
      6202 MEMB     55       SAPC     H13B     HL       0.250000       1.00800           0
      6203 MEMB     55       SAPC     H13C     HL       0.250000       1.00800           0
      6204 MEMB     55       SAPC     C14      CTL5    -0.350000       12.0110           0
      6205 MEMB     55       SAPC     H14A     HL       0.250000       1.00800           0
      6206 MEMB     55       SAPC     H14B     HL       0.250000       1.00800           0
      6207 MEMB     55       SAPC     H14C     HL       0.250000       1.00800           0
      6208 MEMB     55       SAPC     C15      CTL5    -0.350000       12.0110           0
      6209 MEMB     55       SAPC     H15A     HL       0.250000       1.00800           0
      6210 MEMB     55       SAPC     H15B     HL       0.250000       1.00800           0
      6211 MEMB     55       SAPC     H15C     HL       0.250000       1.00800           0
      6212 MEMB     55       SAPC     C11      CTL2    -0.800000E-01   12.0110           0
      6213 MEMB     55       SAPC     H11A     HAL2     0.900000E-01   1.00800           0
      6214 MEMB     55       SAPC     H11B     HAL2     0.900000E-01   1.00800           0
      6215 MEMB     55       SAPC     P        PL        1.50000       30.9740           0
      6216 MEMB     55       SAPC     O13      O2L     -0.780000       15.9994           0
      6217 MEMB     55       SAPC     O14      O2L     -0.780000       15.9994           0
      6218 MEMB     55       SAPC     O12      OSLP    -0.570000       15.9994           0
      6219 MEMB     55       SAPC     O11      OSLP    -0.570000       15.9994           0
      6220 MEMB     55       SAPC     C1       CTL2    -0.800000E-01   12.0110           0
      6221 MEMB     55       SAPC     HA       HAL2     0.900000E-01   1.00800           0
      6222 MEMB     55       SAPC     HB       HAL2     0.900000E-01   1.00800           0
      6223 MEMB     55       SAPC     C2       CTL1     0.170000       12.0110           0
      6224 MEMB     55       SAPC     HS       HAL1     0.900000E-01   1.00800           0
      6225 MEMB     55       SAPC     O21      OSL     -0.490000       15.9994           0
      6226 MEMB     55       SAPC     C21      CL       0.900000       12.0110           0
      6227 MEMB     55       SAPC     O22      OBL     -0.630000       15.9994           0
      6228 MEMB     55       SAPC     C22      CTL2    -0.220000       12.0110           0
      6229 MEMB     55       SAPC     H2R      HAL2     0.900000E-01   1.00800           0
      6230 MEMB     55       SAPC     H2S      HAL2     0.900000E-01   1.00800           0
      6231 MEMB     55       SAPC     C3       CTL2     0.800000E-01   12.0110           0
      6232 MEMB     55       SAPC     HX       HAL2     0.900000E-01   1.00800           0
      6233 MEMB     55       SAPC     HY       HAL2     0.900000E-01   1.00800           0
      6234 MEMB     55       SAPC     O31      OSL     -0.490000       15.9994           0
      6235 MEMB     55       SAPC     C31      CL       0.900000       12.0110           0
      6236 MEMB     55       SAPC     O32      OBL     -0.630000       15.9994           0
      6237 MEMB     55       SAPC     C32      CTL2    -0.220000       12.0110           0
      6238 MEMB     55       SAPC     H2X      HAL2     0.900000E-01   1.00800           0
      6239 MEMB     55       SAPC     H2Y      HAL2     0.900000E-01   1.00800           0
      6240 MEMB     55       SAPC     C23      CTL2    -0.180000       12.0110           0
      6241 MEMB     55       SAPC     H3R      HAL2     0.900000E-01   1.00800           0
      6242 MEMB     55       SAPC     H3S      HAL2     0.900000E-01   1.00800           0
      6243 MEMB     55       SAPC     C24      CTL2    -0.180000       12.0110           0
      6244 MEMB     55       SAPC     H4R      HAL2     0.900000E-01   1.00800           0
      6245 MEMB     55       SAPC     H4S      HAL2     0.900000E-01   1.00800           0
      6246 MEMB     55       SAPC     C25      CEL1    -0.150000       12.0110           0
      6247 MEMB     55       SAPC     H5R      HEL1     0.150000       1.00800           0
      6248 MEMB     55       SAPC     C26      CEL1    -0.150000       12.0110           0
      6249 MEMB     55       SAPC     H6R      HEL1     0.150000       1.00800           0
      6250 MEMB     55       SAPC     C27      CTL2    -0.180000       12.0110           0
      6251 MEMB     55       SAPC     H7R      HAL2     0.900000E-01   1.00800           0
      6252 MEMB     55       SAPC     H7S      HAL2     0.900000E-01   1.00800           0
      6253 MEMB     55       SAPC     C28      CEL1    -0.150000       12.0110           0
      6254 MEMB     55       SAPC     H8R      HEL1     0.150000       1.00800           0
      6255 MEMB     55       SAPC     C29      CEL1    -0.150000       12.0110           0
      6256 MEMB     55       SAPC     H9R      HEL1     0.150000       1.00800           0
      6257 MEMB     55       SAPC     C210     CTL2    -0.180000       12.0110           0
      6258 MEMB     55       SAPC     H10R     HAL2     0.900000E-01   1.00800           0
      6259 MEMB     55       SAPC     H10S     HAL2     0.900000E-01   1.00800           0
      6260 MEMB     55       SAPC     C211     CEL1    -0.150000       12.0110           0
      6261 MEMB     55       SAPC     H11R     HEL1     0.150000       1.00800           0
      6262 MEMB     55       SAPC     C212     CEL1    -0.150000       12.0110           0
      6263 MEMB     55       SAPC     H12R     HEL1     0.150000       1.00800           0
      6264 MEMB     55       SAPC     C213     CTL2    -0.180000       12.0110           0
      6265 MEMB     55       SAPC     H13R     HAL2     0.900000E-01   1.00800           0
      6266 MEMB     55       SAPC     H13S     HAL2     0.900000E-01   1.00800           0
      6267 MEMB     55       SAPC     C214     CEL1    -0.150000       12.0110           0
      6268 MEMB     55       SAPC     H14R     HEL1     0.150000       1.00800           0
      6269 MEMB     55       SAPC     C215     CEL1    -0.150000       12.0110           0
      6270 MEMB     55       SAPC     H15R     HEL1     0.150000       1.00800           0
      6271 MEMB     55       SAPC     C216     CTL2    -0.180000       12.0110           0
      6272 MEMB     55       SAPC     H16R     HAL2     0.900000E-01   1.00800           0
      6273 MEMB     55       SAPC     H16S     HAL2     0.900000E-01   1.00800           0
      6274 MEMB     55       SAPC     C217     CTL2    -0.180000       12.0110           0
      6275 MEMB     55       SAPC     H17R     HAL2     0.900000E-01   1.00800           0
      6276 MEMB     55       SAPC     H17S     HAL2     0.900000E-01   1.00800           0
      6277 MEMB     55       SAPC     C218     CTL2    -0.270000       12.0110           0
      6278 MEMB     55       SAPC     H18R     HAL2     0.900000E-01   1.00800           0
      6279 MEMB     55       SAPC     H18S     HAL2     0.900000E-01   1.00800           0
      6280 MEMB     55       SAPC     C219     CTL2    -0.180000       12.0110           0
      6281 MEMB     55       SAPC     H19R     HAL2     0.900000E-01   1.00800           0
      6282 MEMB     55       SAPC     H19S     HAL2     0.900000E-01   1.00800           0
      6283 MEMB     55       SAPC     C220     CTL3    -0.180000       12.0110           0
      6284 MEMB     55       SAPC     H20R     HAL3     0.900000E-01   1.00800           0
      6285 MEMB     55       SAPC     H20S     HAL3     0.900000E-01   1.00800           0
      6286 MEMB     55       SAPC     H20T     HAL3     0.900000E-01   1.00800           0
      6287 MEMB     55       SAPC     C33      CTL2    -0.180000       12.0110           0
      6288 MEMB     55       SAPC     H3X      HAL2     0.900000E-01   1.00800           0
      6289 MEMB     55       SAPC     H3Y      HAL2     0.900000E-01   1.00800           0
      6290 MEMB     55       SAPC     C34      CTL2    -0.180000       12.0110           0
      6291 MEMB     55       SAPC     H4X      HAL2     0.900000E-01   1.00800           0
      6292 MEMB     55       SAPC     H4Y      HAL2     0.900000E-01   1.00800           0
      6293 MEMB     55       SAPC     C35      CTL2    -0.180000       12.0110           0
      6294 MEMB     55       SAPC     H5X      HAL2     0.900000E-01   1.00800           0
      6295 MEMB     55       SAPC     H5Y      HAL2     0.900000E-01   1.00800           0
      6296 MEMB     55       SAPC     C36      CTL2    -0.180000       12.0110           0
      6297 MEMB     55       SAPC     H6X      HAL2     0.900000E-01   1.00800           0
      6298 MEMB     55       SAPC     H6Y      HAL2     0.900000E-01   1.00800           0
      6299 MEMB     55       SAPC     C37      CTL2    -0.180000       12.0110           0
      6300 MEMB     55       SAPC     H7X      HAL2     0.900000E-01   1.00800           0
      6301 MEMB     55       SAPC     H7Y      HAL2     0.900000E-01   1.00800           0
      6302 MEMB     55       SAPC     C38      CTL2    -0.180000       12.0110           0
      6303 MEMB     55       SAPC     H8X      HAL2     0.900000E-01   1.00800           0
      6304 MEMB     55       SAPC     H8Y      HAL2     0.900000E-01   1.00800           0
      6305 MEMB     55       SAPC     C39      CTL2    -0.180000       12.0110           0
      6306 MEMB     55       SAPC     H9X      HAL2     0.900000E-01   1.00800           0
      6307 MEMB     55       SAPC     H9Y      HAL2     0.900000E-01   1.00800           0
      6308 MEMB     55       SAPC     C310     CTL2    -0.180000       12.0110           0
      6309 MEMB     55       SAPC     H10X     HAL2     0.900000E-01   1.00800           0
      6310 MEMB     55       SAPC     H10Y     HAL2     0.900000E-01   1.00800           0
      6311 MEMB     55       SAPC     C311     CTL2    -0.180000       12.0110           0
      6312 MEMB     55       SAPC     H11X     HAL2     0.900000E-01   1.00800           0
      6313 MEMB     55       SAPC     H11Y     HAL2     0.900000E-01   1.00800           0
      6314 MEMB     55       SAPC     C312     CTL2    -0.180000       12.0110           0
      6315 MEMB     55       SAPC     H12X     HAL2     0.900000E-01   1.00800           0
      6316 MEMB     55       SAPC     H12Y     HAL2     0.900000E-01   1.00800           0
      6317 MEMB     55       SAPC     C313     CTL2    -0.180000       12.0110           0
      6318 MEMB     55       SAPC     H13X     HAL2     0.900000E-01   1.00800           0
      6319 MEMB     55       SAPC     H13Y     HAL2     0.900000E-01   1.00800           0
      6320 MEMB     55       SAPC     C314     CTL2    -0.180000       12.0110           0
      6321 MEMB     55       SAPC     H14X     HAL2     0.900000E-01   1.00800           0
      6322 MEMB     55       SAPC     H14Y     HAL2     0.900000E-01   1.00800           0
      6323 MEMB     55       SAPC     C315     CTL2    -0.180000       12.0110           0
      6324 MEMB     55       SAPC     H15X     HAL2     0.900000E-01   1.00800           0
      6325 MEMB     55       SAPC     H15Y     HAL2     0.900000E-01   1.00800           0
      6326 MEMB     55       SAPC     C316     CTL2    -0.180000       12.0110           0
      6327 MEMB     55       SAPC     H16X     HAL2     0.900000E-01   1.00800           0
      6328 MEMB     55       SAPC     H16Y     HAL2     0.900000E-01   1.00800           0
      6329 MEMB     55       SAPC     C317     CTL2    -0.180000       12.0110           0
      6330 MEMB     55       SAPC     H17X     HAL2     0.900000E-01   1.00800           0
      6331 MEMB     55       SAPC     H17Y     HAL2     0.900000E-01   1.00800           0
      6332 MEMB     55       SAPC     C318     CTL3    -0.270000       12.0110           0
      6333 MEMB     55       SAPC     H18X     HAL3     0.900000E-01   1.00800           0
      6334 MEMB     55       SAPC     H18Y     HAL3     0.900000E-01   1.00800           0
      6335 MEMB     55       SAPC     H18Z     HAL3     0.900000E-01   1.00800           0
      6336 MEMB     56       OSM      N        NTL     -0.600000       14.0070           0
      6337 MEMB     56       OSM      C15      CTL5    -0.350000       12.0110           0
      6338 MEMB     56       OSM      H15A     HL       0.250000       1.00800           0
      6339 MEMB     56       OSM      H15B     HL       0.250000       1.00800           0
      6340 MEMB     56       OSM      H15C     HL       0.250000       1.00800           0
      6341 MEMB     56       OSM      C14      CTL5    -0.350000       12.0110           0
      6342 MEMB     56       OSM      H14A     HL       0.250000       1.00800           0
      6343 MEMB     56       OSM      H14B     HL       0.250000       1.00800           0
      6344 MEMB     56       OSM      H14C     HL       0.250000       1.00800           0
      6345 MEMB     56       OSM      C13      CTL5    -0.350000       12.0110           0
      6346 MEMB     56       OSM      H13A     HL       0.250000       1.00800           0
      6347 MEMB     56       OSM      H13B     HL       0.250000       1.00800           0
      6348 MEMB     56       OSM      H13C     HL       0.250000       1.00800           0
      6349 MEMB     56       OSM      C12      CTL2    -0.100000       12.0110           0
      6350 MEMB     56       OSM      H12A     HL       0.250000       1.00800           0
      6351 MEMB     56       OSM      H12B     HL       0.250000       1.00800           0
      6352 MEMB     56       OSM      C11      CTL2    -0.800000E-01   12.0110           0
      6353 MEMB     56       OSM      H11A     HAL2     0.900000E-01   1.00800           0
      6354 MEMB     56       OSM      H11B     HAL2     0.900000E-01   1.00800           0
      6355 MEMB     56       OSM      P        PL        1.50000       30.9740           0
      6356 MEMB     56       OSM      O13      O2L     -0.780000       15.9994           0
      6357 MEMB     56       OSM      O14      O2L     -0.780000       15.9994           0
      6358 MEMB     56       OSM      O11      OSLP    -0.570000       15.9994           0
      6359 MEMB     56       OSM      O12      OSLP    -0.570000       15.9994           0
      6360 MEMB     56       OSM      C1S      CTL2    -0.800000E-01   12.0110           0
      6361 MEMB     56       OSM      H1S      HAL2     0.900000E-01   1.00800           0
      6362 MEMB     56       OSM      H1T      HAL2     0.900000E-01   1.00800           0
      6363 MEMB     56       OSM      NF       NHL     -0.700000       14.0070           0
      6364 MEMB     56       OSM      HNF      H        0.350000       1.00800           0
      6365 MEMB     56       OSM      C2S      CTL1     0.300000       12.0110           0
      6366 MEMB     56       OSM      H2S      HAL1     0.500000E-01   1.00800           0
      6367 MEMB     56       OSM      C3S      CTO1     0.500000       12.0110           0
      6368 MEMB     56       OSM      H3S      HAL1    -0.110000       1.00800           0
      6369 MEMB     56       OSM      O3       OHL     -0.690000       15.9994           0
      6370 MEMB     56       OSM      HO3      HOL      0.300000       1.00800           0
      6371 MEMB     56       OSM      C4S      CEL3    -0.150000       12.0110           0
      6372 MEMB     56       OSM      H4S      HEL1     0.150000       1.00800           0
      6373 MEMB     56       OSM      C5S      CEL3    -0.150000       12.0110           0
      6374 MEMB     56       OSM      H5S      HEL1     0.150000       1.00800           0
      6375 MEMB     56       OSM      C6S      CTL2    -0.180000       12.0110           0
      6376 MEMB     56       OSM      H6S      HAL2     0.900000E-01   1.00800           0
      6377 MEMB     56       OSM      H6T      HAL2     0.900000E-01   1.00800           0
      6378 MEMB     56       OSM      C7S      CTL2    -0.180000       12.0110           0
      6379 MEMB     56       OSM      H7S      HAL2     0.900000E-01   1.00800           0
      6380 MEMB     56       OSM      H7T      HAL2     0.900000E-01   1.00800           0
      6381 MEMB     56       OSM      C8S      CTL2    -0.180000       12.0110           0
      6382 MEMB     56       OSM      H8S      HAL2     0.900000E-01   1.00800           0
      6383 MEMB     56       OSM      H8T      HAL2     0.900000E-01   1.00800           0
      6384 MEMB     56       OSM      C9S      CTL2    -0.180000       12.0110           0
      6385 MEMB     56       OSM      H9S      HAL2     0.900000E-01   1.00800           0
      6386 MEMB     56       OSM      H9T      HAL2     0.900000E-01   1.00800           0
      6387 MEMB     56       OSM      C10S     CTL2    -0.180000       12.0110           0
      6388 MEMB     56       OSM      H10S     HAL2     0.900000E-01   1.00800           0
      6389 MEMB     56       OSM      H10T     HAL2     0.900000E-01   1.00800           0
      6390 MEMB     56       OSM      C11S     CTL2    -0.180000       12.0110           0
      6391 MEMB     56       OSM      H11S     HAL2     0.900000E-01   1.00800           0
      6392 MEMB     56       OSM      H11T     HAL2     0.900000E-01   1.00800           0
      6393 MEMB     56       OSM      C12S     CTL2    -0.180000       12.0110           0
      6394 MEMB     56       OSM      H12S     HAL2     0.900000E-01   1.00800           0
      6395 MEMB     56       OSM      H12T     HAL2     0.900000E-01   1.00800           0
      6396 MEMB     56       OSM      C13S     CTL2    -0.180000       12.0110           0
      6397 MEMB     56       OSM      H13S     HAL2     0.900000E-01   1.00800           0
      6398 MEMB     56       OSM      H13T     HAL2     0.900000E-01   1.00800           0
      6399 MEMB     56       OSM      C14S     CTL2    -0.180000       12.0110           0
      6400 MEMB     56       OSM      H14S     HAL2     0.900000E-01   1.00800           0
      6401 MEMB     56       OSM      H14T     HAL2     0.900000E-01   1.00800           0
      6402 MEMB     56       OSM      C15S     CTL2    -0.180000       12.0110           0
      6403 MEMB     56       OSM      H15S     HAL2     0.900000E-01   1.00800           0
      6404 MEMB     56       OSM      H15T     HAL2     0.900000E-01   1.00800           0
      6405 MEMB     56       OSM      C16S     CTL2    -0.180000       12.0110           0
      6406 MEMB     56       OSM      H16S     HAL2     0.900000E-01   1.00800           0
      6407 MEMB     56       OSM      H16T     HAL2     0.900000E-01   1.00800           0
      6408 MEMB     56       OSM      C17S     CTL2    -0.180000       12.0110           0
      6409 MEMB     56       OSM      H17S     HAL2     0.900000E-01   1.00800           0
      6410 MEMB     56       OSM      H17T     HAL2     0.900000E-01   1.00800           0
      6411 MEMB     56       OSM      C18S     CTL3    -0.270000       12.0110           0
      6412 MEMB     56       OSM      H18S     HAL3     0.900000E-01   1.00800           0
      6413 MEMB     56       OSM      H18T     HAL3     0.900000E-01   1.00800           0
      6414 MEMB     56       OSM      H18U     HAL3     0.900000E-01   1.00800           0
      6415 MEMB     56       OSM      C1F      C        0.550000       12.0110           0
      6416 MEMB     56       OSM      OF       O       -0.600000       15.9994           0
      6417 MEMB     56       OSM      C2F      CTL2    -0.700000E-01   12.0110           0
      6418 MEMB     56       OSM      H2F      HAL2     0.600000E-01   1.00800           0
      6419 MEMB     56       OSM      H2G      HAL2     0.600000E-01   1.00800           0
      6420 MEMB     56       OSM      C3F      CTL2    -0.180000       12.0110           0
      6421 MEMB     56       OSM      H3F      HAL2     0.900000E-01   1.00800           0
      6422 MEMB     56       OSM      H3G      HAL2     0.900000E-01   1.00800           0
      6423 MEMB     56       OSM      C4F      CTL2    -0.180000       12.0110           0
      6424 MEMB     56       OSM      H4F      HAL2     0.900000E-01   1.00800           0
      6425 MEMB     56       OSM      H4G      HAL2     0.900000E-01   1.00800           0
      6426 MEMB     56       OSM      C5F      CTL2    -0.180000       12.0110           0
      6427 MEMB     56       OSM      H5F      HAL2     0.900000E-01   1.00800           0
      6428 MEMB     56       OSM      H5G      HAL2     0.900000E-01   1.00800           0
      6429 MEMB     56       OSM      C6F      CTL2    -0.180000       12.0110           0
      6430 MEMB     56       OSM      H6F      HAL2     0.900000E-01   1.00800           0
      6431 MEMB     56       OSM      H6G      HAL2     0.900000E-01   1.00800           0
      6432 MEMB     56       OSM      C7F      CTL2    -0.180000       12.0110           0
      6433 MEMB     56       OSM      H7F      HAL2     0.900000E-01   1.00800           0
      6434 MEMB     56       OSM      H7G      HAL2     0.900000E-01   1.00800           0
      6435 MEMB     56       OSM      C8F      CTL2    -0.180000       12.0110           0
      6436 MEMB     56       OSM      H8F      HAL2     0.900000E-01   1.00800           0
      6437 MEMB     56       OSM      H8G      HAL2     0.900000E-01   1.00800           0
      6438 MEMB     56       OSM      C9F      CEL1    -0.150000       12.0110           0
      6439 MEMB     56       OSM      H9F      HEL1     0.150000       1.00800           0
      6440 MEMB     56       OSM      C10F     CEL1    -0.150000       12.0110           0
      6441 MEMB     56       OSM      H10F     HEL1     0.150000       1.00800           0
      6442 MEMB     56       OSM      C11F     CTL2    -0.180000       12.0110           0
      6443 MEMB     56       OSM      H11F     HAL2     0.900000E-01   1.00800           0
      6444 MEMB     56       OSM      H11G     HAL2     0.900000E-01   1.00800           0
      6445 MEMB     56       OSM      C12F     CTL2    -0.180000       12.0110           0
      6446 MEMB     56       OSM      H12F     HAL2     0.900000E-01   1.00800           0
      6447 MEMB     56       OSM      H12G     HAL2     0.900000E-01   1.00800           0
      6448 MEMB     56       OSM      C13F     CTL2    -0.180000       12.0110           0
      6449 MEMB     56       OSM      H13F     HAL2     0.900000E-01   1.00800           0
      6450 MEMB     56       OSM      H13G     HAL2     0.900000E-01   1.00800           0
      6451 MEMB     56       OSM      C14F     CTL2    -0.180000       12.0110           0
      6452 MEMB     56       OSM      H14F     HAL2     0.900000E-01   1.00800           0
      6453 MEMB     56       OSM      H14G     HAL2     0.900000E-01   1.00800           0
      6454 MEMB     56       OSM      C15F     CTL2    -0.180000       12.0110           0
      6455 MEMB     56       OSM      H15F     HAL2     0.900000E-01   1.00800           0
      6456 MEMB     56       OSM      H15G     HAL2     0.900000E-01   1.00800           0
      6457 MEMB     56       OSM      C16F     CTL2    -0.180000       12.0110           0
      6458 MEMB     56       OSM      H16F     HAL2     0.900000E-01   1.00800           0
      6459 MEMB     56       OSM      H16G     HAL2     0.900000E-01   1.00800           0
      6460 MEMB     56       OSM      C17F     CTL2    -0.180000       12.0110           0
      6461 MEMB     56       OSM      H17F     HAL2     0.900000E-01   1.00800           0
      6462 MEMB     56       OSM      H17G     HAL2     0.900000E-01   1.00800           0
      6463 MEMB     56       OSM      C18F     CTL3    -0.270000       12.0110           0
      6464 MEMB     56       OSM      H18F     HAL3     0.900000E-01   1.00800           0
      6465 MEMB     56       OSM      H18G     HAL3     0.900000E-01   1.00800           0
      6466 MEMB     56       OSM      H18H     HAL3     0.900000E-01   1.00800           0
      6467 MEMB     57       SLPC     N        NTL     -0.600000       14.0070           0
      6468 MEMB     57       SLPC     C13      CTL5    -0.350000       12.0110           0
      6469 MEMB     57       SLPC     H13A     HL       0.250000       1.00800           0
      6470 MEMB     57       SLPC     H13B     HL       0.250000       1.00800           0
      6471 MEMB     57       SLPC     H13C     HL       0.250000       1.00800           0
      6472 MEMB     57       SLPC     C14      CTL5    -0.350000       12.0110           0
      6473 MEMB     57       SLPC     H14A     HL       0.250000       1.00800           0
      6474 MEMB     57       SLPC     H14B     HL       0.250000       1.00800           0
      6475 MEMB     57       SLPC     H14C     HL       0.250000       1.00800           0
      6476 MEMB     57       SLPC     C15      CTL5    -0.350000       12.0110           0
      6477 MEMB     57       SLPC     H15A     HL       0.250000       1.00800           0
      6478 MEMB     57       SLPC     H15B     HL       0.250000       1.00800           0
      6479 MEMB     57       SLPC     H15C     HL       0.250000       1.00800           0
      6480 MEMB     57       SLPC     C12      CTL2    -0.100000       12.0110           0
      6481 MEMB     57       SLPC     H12A     HL       0.250000       1.00800           0
      6482 MEMB     57       SLPC     H12B     HL       0.250000       1.00800           0
      6483 MEMB     57       SLPC     C11      CTL2    -0.800000E-01   12.0110           0
      6484 MEMB     57       SLPC     H11A     HAL2     0.900000E-01   1.00800           0
      6485 MEMB     57       SLPC     H11B     HAL2     0.900000E-01   1.00800           0
      6486 MEMB     57       SLPC     P        PL        1.50000       30.9740           0
      6487 MEMB     57       SLPC     O13      O2L     -0.780000       15.9994           0
      6488 MEMB     57       SLPC     O14      O2L     -0.780000       15.9994           0
      6489 MEMB     57       SLPC     O12      OSLP    -0.570000       15.9994           0
      6490 MEMB     57       SLPC     O11      OSLP    -0.570000       15.9994           0
      6491 MEMB     57       SLPC     C1       CTL2    -0.800000E-01   12.0110           0
      6492 MEMB     57       SLPC     HA       HAL2     0.900000E-01   1.00800           0
      6493 MEMB     57       SLPC     HB       HAL2     0.900000E-01   1.00800           0
      6494 MEMB     57       SLPC     C2       CTL1     0.170000       12.0110           0
      6495 MEMB     57       SLPC     HS       HAL1     0.900000E-01   1.00800           0
      6496 MEMB     57       SLPC     O21      OSL     -0.490000       15.9994           0
      6497 MEMB     57       SLPC     C21      CL       0.900000       12.0110           0
      6498 MEMB     57       SLPC     O22      OBL     -0.630000       15.9994           0
      6499 MEMB     57       SLPC     C22      CTL2    -0.220000       12.0110           0
      6500 MEMB     57       SLPC     H2R      HAL2     0.900000E-01   1.00800           0
      6501 MEMB     57       SLPC     H2S      HAL2     0.900000E-01   1.00800           0
      6502 MEMB     57       SLPC     C3       CTL2     0.800000E-01   12.0110           0
      6503 MEMB     57       SLPC     HX       HAL2     0.900000E-01   1.00800           0
      6504 MEMB     57       SLPC     HY       HAL2     0.900000E-01   1.00800           0
      6505 MEMB     57       SLPC     O31      OSL     -0.490000       15.9994           0
      6506 MEMB     57       SLPC     C31      CL       0.900000       12.0110           0
      6507 MEMB     57       SLPC     O32      OBL     -0.630000       15.9994           0
      6508 MEMB     57       SLPC     C32      CTL2    -0.220000       12.0110           0
      6509 MEMB     57       SLPC     H2X      HAL2     0.900000E-01   1.00800           0
      6510 MEMB     57       SLPC     H2Y      HAL2     0.900000E-01   1.00800           0
      6511 MEMB     57       SLPC     C23      CTL2    -0.180000       12.0110           0
      6512 MEMB     57       SLPC     H3R      HAL2     0.900000E-01   1.00800           0
      6513 MEMB     57       SLPC     H3S      HAL2     0.900000E-01   1.00800           0
      6514 MEMB     57       SLPC     C24      CTL2    -0.180000       12.0110           0
      6515 MEMB     57       SLPC     H4R      HAL2     0.900000E-01   1.00800           0
      6516 MEMB     57       SLPC     H4S      HAL2     0.900000E-01   1.00800           0
      6517 MEMB     57       SLPC     C25      CTL2    -0.180000       12.0110           0
      6518 MEMB     57       SLPC     H5R      HAL2     0.900000E-01   1.00800           0
      6519 MEMB     57       SLPC     H5S      HAL2     0.900000E-01   1.00800           0
      6520 MEMB     57       SLPC     C26      CTL2    -0.180000       12.0110           0
      6521 MEMB     57       SLPC     H6R      HAL2     0.900000E-01   1.00800           0
      6522 MEMB     57       SLPC     H6S      HAL2     0.900000E-01   1.00800           0
      6523 MEMB     57       SLPC     C27      CTL2    -0.180000       12.0110           0
      6524 MEMB     57       SLPC     H7R      HAL2     0.900000E-01   1.00800           0
      6525 MEMB     57       SLPC     H7S      HAL2     0.900000E-01   1.00800           0
      6526 MEMB     57       SLPC     C28      CTL2    -0.180000       12.0110           0
      6527 MEMB     57       SLPC     H8R      HAL2     0.900000E-01   1.00800           0
      6528 MEMB     57       SLPC     H8S      HAL2     0.900000E-01   1.00800           0
      6529 MEMB     57       SLPC     C29      CEL1    -0.150000       12.0110           0
      6530 MEMB     57       SLPC     H9R      HEL1     0.150000       1.00800           0
      6531 MEMB     57       SLPC     C210     CEL1    -0.150000       12.0110           0
      6532 MEMB     57       SLPC     H10R     HEL1     0.150000       1.00800           0
      6533 MEMB     57       SLPC     C211     CTL2    -0.180000       12.0110           0
      6534 MEMB     57       SLPC     H11R     HAL2     0.900000E-01   1.00800           0
      6535 MEMB     57       SLPC     H11S     HAL2     0.900000E-01   1.00800           0
      6536 MEMB     57       SLPC     C212     CEL1    -0.150000       12.0110           0
      6537 MEMB     57       SLPC     H12R     HEL1     0.150000       1.00800           0
      6538 MEMB     57       SLPC     C213     CEL1    -0.150000       12.0110           0
      6539 MEMB     57       SLPC     H13R     HEL1     0.150000       1.00800           0
      6540 MEMB     57       SLPC     C214     CTL2    -0.180000       12.0110           0
      6541 MEMB     57       SLPC     H14R     HAL2     0.900000E-01   1.00800           0
      6542 MEMB     57       SLPC     H14S     HAL2     0.900000E-01   1.00800           0
      6543 MEMB     57       SLPC     C215     CTL2    -0.180000       12.0110           0
      6544 MEMB     57       SLPC     H15R     HAL2     0.900000E-01   1.00800           0
      6545 MEMB     57       SLPC     H15S     HAL2     0.900000E-01   1.00800           0
      6546 MEMB     57       SLPC     C216     CTL2    -0.180000       12.0110           0
      6547 MEMB     57       SLPC     H16R     HAL2     0.900000E-01   1.00800           0
      6548 MEMB     57       SLPC     H16S     HAL2     0.900000E-01   1.00800           0
      6549 MEMB     57       SLPC     C217     CTL2    -0.180000       12.0110           0
      6550 MEMB     57       SLPC     H17R     HAL2     0.900000E-01   1.00800           0
      6551 MEMB     57       SLPC     H17S     HAL2     0.900000E-01   1.00800           0
      6552 MEMB     57       SLPC     C218     CTL3    -0.270000       12.0110           0
      6553 MEMB     57       SLPC     H18R     HAL3     0.900000E-01   1.00800           0
      6554 MEMB     57       SLPC     H18S     HAL3     0.900000E-01   1.00800           0
      6555 MEMB     57       SLPC     H18T     HAL3     0.900000E-01   1.00800           0
      6556 MEMB     57       SLPC     C33      CTL2    -0.180000       12.0110           0
      6557 MEMB     57       SLPC     H3X      HAL2     0.900000E-01   1.00800           0
      6558 MEMB     57       SLPC     H3Y      HAL2     0.900000E-01   1.00800           0
      6559 MEMB     57       SLPC     C34      CTL2    -0.180000       12.0110           0
      6560 MEMB     57       SLPC     H4X      HAL2     0.900000E-01   1.00800           0
      6561 MEMB     57       SLPC     H4Y      HAL2     0.900000E-01   1.00800           0
      6562 MEMB     57       SLPC     C35      CTL2    -0.180000       12.0110           0
      6563 MEMB     57       SLPC     H5X      HAL2     0.900000E-01   1.00800           0
      6564 MEMB     57       SLPC     H5Y      HAL2     0.900000E-01   1.00800           0
      6565 MEMB     57       SLPC     C36      CTL2    -0.180000       12.0110           0
      6566 MEMB     57       SLPC     H6X      HAL2     0.900000E-01   1.00800           0
      6567 MEMB     57       SLPC     H6Y      HAL2     0.900000E-01   1.00800           0
      6568 MEMB     57       SLPC     C37      CTL2    -0.180000       12.0110           0
      6569 MEMB     57       SLPC     H7X      HAL2     0.900000E-01   1.00800           0
      6570 MEMB     57       SLPC     H7Y      HAL2     0.900000E-01   1.00800           0
      6571 MEMB     57       SLPC     C38      CTL2    -0.180000       12.0110           0
      6572 MEMB     57       SLPC     H8X      HAL2     0.900000E-01   1.00800           0
      6573 MEMB     57       SLPC     H8Y      HAL2     0.900000E-01   1.00800           0
      6574 MEMB     57       SLPC     C39      CTL2    -0.180000       12.0110           0
      6575 MEMB     57       SLPC     H9X      HAL2     0.900000E-01   1.00800           0
      6576 MEMB     57       SLPC     H9Y      HAL2     0.900000E-01   1.00800           0
      6577 MEMB     57       SLPC     C310     CTL2    -0.180000       12.0110           0
      6578 MEMB     57       SLPC     H10X     HAL2     0.900000E-01   1.00800           0
      6579 MEMB     57       SLPC     H10Y     HAL2     0.900000E-01   1.00800           0
      6580 MEMB     57       SLPC     C311     CTL2    -0.180000       12.0110           0
      6581 MEMB     57       SLPC     H11X     HAL2     0.900000E-01   1.00800           0
      6582 MEMB     57       SLPC     H11Y     HAL2     0.900000E-01   1.00800           0
      6583 MEMB     57       SLPC     C312     CTL2    -0.180000       12.0110           0
      6584 MEMB     57       SLPC     H12X     HAL2     0.900000E-01   1.00800           0
      6585 MEMB     57       SLPC     H12Y     HAL2     0.900000E-01   1.00800           0
      6586 MEMB     57       SLPC     C313     CTL2    -0.180000       12.0110           0
      6587 MEMB     57       SLPC     H13X     HAL2     0.900000E-01   1.00800           0
      6588 MEMB     57       SLPC     H13Y     HAL2     0.900000E-01   1.00800           0
      6589 MEMB     57       SLPC     C314     CTL2    -0.180000       12.0110           0
      6590 MEMB     57       SLPC     H14X     HAL2     0.900000E-01   1.00800           0
      6591 MEMB     57       SLPC     H14Y     HAL2     0.900000E-01   1.00800           0
      6592 MEMB     57       SLPC     C315     CTL2    -0.180000       12.0110           0
      6593 MEMB     57       SLPC     H15X     HAL2     0.900000E-01   1.00800           0
      6594 MEMB     57       SLPC     H15Y     HAL2     0.900000E-01   1.00800           0
      6595 MEMB     57       SLPC     C316     CTL2    -0.180000       12.0110           0
      6596 MEMB     57       SLPC     H16X     HAL2     0.900000E-01   1.00800           0
      6597 MEMB     57       SLPC     H16Y     HAL2     0.900000E-01   1.00800           0
      6598 MEMB     57       SLPC     C317     CTL2    -0.180000       12.0110           0
      6599 MEMB     57       SLPC     H17X     HAL2     0.900000E-01   1.00800           0
      6600 MEMB     57       SLPC     H17Y     HAL2     0.900000E-01   1.00800           0
      6601 MEMB     57       SLPC     C318     CTL3    -0.270000       12.0110           0
      6602 MEMB     57       SLPC     H18X     HAL3     0.900000E-01   1.00800           0
      6603 MEMB     57       SLPC     H18Y     HAL3     0.900000E-01   1.00800           0
      6604 MEMB     57       SLPC     H18Z     HAL3     0.900000E-01   1.00800           0
      6605 MEMB     58       SAPE     N        NH3L    -0.300000       14.0070           0
      6606 MEMB     58       SAPE     HN1      HCL      0.330000       1.00800           0
      6607 MEMB     58       SAPE     HN2      HCL      0.330000       1.00800           0
      6608 MEMB     58       SAPE     HN3      HCL      0.330000       1.00800           0
      6609 MEMB     58       SAPE     C12      CTL2     0.130000       12.0110           0
      6610 MEMB     58       SAPE     H12A     HAL2     0.900000E-01   1.00800           0
      6611 MEMB     58       SAPE     H12B     HAL2     0.900000E-01   1.00800           0
      6612 MEMB     58       SAPE     C11      CTL2    -0.800000E-01   12.0110           0
      6613 MEMB     58       SAPE     H11A     HAL2     0.900000E-01   1.00800           0
      6614 MEMB     58       SAPE     H11B     HAL2     0.900000E-01   1.00800           0
      6615 MEMB     58       SAPE     P        PL        1.50000       30.9740           0
      6616 MEMB     58       SAPE     O13      O2L     -0.780000       15.9994           0
      6617 MEMB     58       SAPE     O14      O2L     -0.780000       15.9994           0
      6618 MEMB     58       SAPE     O12      OSLP    -0.570000       15.9994           0
      6619 MEMB     58       SAPE     O11      OSLP    -0.570000       15.9994           0
      6620 MEMB     58       SAPE     C1       CTL2    -0.800000E-01   12.0110           0
      6621 MEMB     58       SAPE     HA       HAL2     0.900000E-01   1.00800           0
      6622 MEMB     58       SAPE     HB       HAL2     0.900000E-01   1.00800           0
      6623 MEMB     58       SAPE     C2       CTL1     0.170000       12.0110           0
      6624 MEMB     58       SAPE     HS       HAL1     0.900000E-01   1.00800           0
      6625 MEMB     58       SAPE     O21      OSL     -0.490000       15.9994           0
      6626 MEMB     58       SAPE     C21      CL       0.900000       12.0110           0
      6627 MEMB     58       SAPE     O22      OBL     -0.630000       15.9994           0
      6628 MEMB     58       SAPE     C22      CTL2    -0.220000       12.0110           0
      6629 MEMB     58       SAPE     H2R      HAL2     0.900000E-01   1.00800           0
      6630 MEMB     58       SAPE     H2S      HAL2     0.900000E-01   1.00800           0
      6631 MEMB     58       SAPE     C3       CTL2     0.800000E-01   12.0110           0
      6632 MEMB     58       SAPE     HX       HAL2     0.900000E-01   1.00800           0
      6633 MEMB     58       SAPE     HY       HAL2     0.900000E-01   1.00800           0
      6634 MEMB     58       SAPE     O31      OSL     -0.490000       15.9994           0
      6635 MEMB     58       SAPE     C31      CL       0.900000       12.0110           0
      6636 MEMB     58       SAPE     O32      OBL     -0.630000       15.9994           0
      6637 MEMB     58       SAPE     C32      CTL2    -0.220000       12.0110           0
      6638 MEMB     58       SAPE     H2X      HAL2     0.900000E-01   1.00800           0
      6639 MEMB     58       SAPE     H2Y      HAL2     0.900000E-01   1.00800           0
      6640 MEMB     58       SAPE     C23      CTL2    -0.180000       12.0110           0
      6641 MEMB     58       SAPE     H3R      HAL2     0.900000E-01   1.00800           0
      6642 MEMB     58       SAPE     H3S      HAL2     0.900000E-01   1.00800           0
      6643 MEMB     58       SAPE     C24      CTL2    -0.180000       12.0110           0
      6644 MEMB     58       SAPE     H4R      HAL2     0.900000E-01   1.00800           0
      6645 MEMB     58       SAPE     H4S      HAL2     0.900000E-01   1.00800           0
      6646 MEMB     58       SAPE     C25      CEL1    -0.150000       12.0110           0
      6647 MEMB     58       SAPE     H5R      HEL1     0.150000       1.00800           0
      6648 MEMB     58       SAPE     C26      CEL1    -0.150000       12.0110           0
      6649 MEMB     58       SAPE     H6R      HEL1     0.150000       1.00800           0
      6650 MEMB     58       SAPE     C27      CTL2    -0.180000       12.0110           0
      6651 MEMB     58       SAPE     H7R      HAL2     0.900000E-01   1.00800           0
      6652 MEMB     58       SAPE     H7S      HAL2     0.900000E-01   1.00800           0
      6653 MEMB     58       SAPE     C28      CEL1    -0.150000       12.0110           0
      6654 MEMB     58       SAPE     H8R      HEL1     0.150000       1.00800           0
      6655 MEMB     58       SAPE     C29      CEL1    -0.150000       12.0110           0
      6656 MEMB     58       SAPE     H9R      HEL1     0.150000       1.00800           0
      6657 MEMB     58       SAPE     C210     CTL2    -0.180000       12.0110           0
      6658 MEMB     58       SAPE     H10R     HAL2     0.900000E-01   1.00800           0
      6659 MEMB     58       SAPE     H10S     HAL2     0.900000E-01   1.00800           0
      6660 MEMB     58       SAPE     C211     CEL1    -0.150000       12.0110           0
      6661 MEMB     58       SAPE     H11R     HEL1     0.150000       1.00800           0
      6662 MEMB     58       SAPE     C212     CEL1    -0.150000       12.0110           0
      6663 MEMB     58       SAPE     H12R     HEL1     0.150000       1.00800           0
      6664 MEMB     58       SAPE     C213     CTL2    -0.180000       12.0110           0
      6665 MEMB     58       SAPE     H13R     HAL2     0.900000E-01   1.00800           0
      6666 MEMB     58       SAPE     H13S     HAL2     0.900000E-01   1.00800           0
      6667 MEMB     58       SAPE     C214     CEL1    -0.150000       12.0110           0
      6668 MEMB     58       SAPE     H14R     HEL1     0.150000       1.00800           0
      6669 MEMB     58       SAPE     C215     CEL1    -0.150000       12.0110           0
      6670 MEMB     58       SAPE     H15R     HEL1     0.150000       1.00800           0
      6671 MEMB     58       SAPE     C216     CTL2    -0.180000       12.0110           0
      6672 MEMB     58       SAPE     H16R     HAL2     0.900000E-01   1.00800           0
      6673 MEMB     58       SAPE     H16S     HAL2     0.900000E-01   1.00800           0
      6674 MEMB     58       SAPE     C217     CTL2    -0.180000       12.0110           0
      6675 MEMB     58       SAPE     H17R     HAL2     0.900000E-01   1.00800           0
      6676 MEMB     58       SAPE     H17S     HAL2     0.900000E-01   1.00800           0
      6677 MEMB     58       SAPE     C218     CTL2    -0.180000       12.0110           0
      6678 MEMB     58       SAPE     H18R     HAL2     0.900000E-01   1.00800           0
      6679 MEMB     58       SAPE     H18S     HAL2     0.900000E-01   1.00800           0
      6680 MEMB     58       SAPE     C219     CTL2    -0.180000       12.0110           0
      6681 MEMB     58       SAPE     H19R     HAL2     0.900000E-01   1.00800           0
      6682 MEMB     58       SAPE     H19S     HAL2     0.900000E-01   1.00800           0
      6683 MEMB     58       SAPE     C220     CTL3    -0.270000       12.0110           0
      6684 MEMB     58       SAPE     H20R     HAL3     0.900000E-01   1.00800           0
      6685 MEMB     58       SAPE     H20S     HAL3     0.900000E-01   1.00800           0
      6686 MEMB     58       SAPE     H20T     HAL3     0.900000E-01   1.00800           0
      6687 MEMB     58       SAPE     C33      CTL2    -0.180000       12.0110           0
      6688 MEMB     58       SAPE     H3X      HAL2     0.900000E-01   1.00800           0
      6689 MEMB     58       SAPE     H3Y      HAL2     0.900000E-01   1.00800           0
      6690 MEMB     58       SAPE     C34      CTL2    -0.180000       12.0110           0
      6691 MEMB     58       SAPE     H4X      HAL2     0.900000E-01   1.00800           0
      6692 MEMB     58       SAPE     H4Y      HAL2     0.900000E-01   1.00800           0
      6693 MEMB     58       SAPE     C35      CTL2    -0.180000       12.0110           0
      6694 MEMB     58       SAPE     H5X      HAL2     0.900000E-01   1.00800           0
      6695 MEMB     58       SAPE     H5Y      HAL2     0.900000E-01   1.00800           0
      6696 MEMB     58       SAPE     C36      CTL2    -0.180000       12.0110           0
      6697 MEMB     58       SAPE     H6X      HAL2     0.900000E-01   1.00800           0
      6698 MEMB     58       SAPE     H6Y      HAL2     0.900000E-01   1.00800           0
      6699 MEMB     58       SAPE     C37      CTL2    -0.180000       12.0110           0
      6700 MEMB     58       SAPE     H7X      HAL2     0.900000E-01   1.00800           0
      6701 MEMB     58       SAPE     H7Y      HAL2     0.900000E-01   1.00800           0
      6702 MEMB     58       SAPE     C38      CTL2    -0.180000       12.0110           0
      6703 MEMB     58       SAPE     H8X      HAL2     0.900000E-01   1.00800           0
      6704 MEMB     58       SAPE     H8Y      HAL2     0.900000E-01   1.00800           0
      6705 MEMB     58       SAPE     C39      CTL2    -0.180000       12.0110           0
      6706 MEMB     58       SAPE     H9X      HAL2     0.900000E-01   1.00800           0
      6707 MEMB     58       SAPE     H9Y      HAL2     0.900000E-01   1.00800           0
      6708 MEMB     58       SAPE     C310     CTL2    -0.180000       12.0110           0
      6709 MEMB     58       SAPE     H10X     HAL2     0.900000E-01   1.00800           0
      6710 MEMB     58       SAPE     H10Y     HAL2     0.900000E-01   1.00800           0
      6711 MEMB     58       SAPE     C311     CTL2    -0.180000       12.0110           0
      6712 MEMB     58       SAPE     H11X     HAL2     0.900000E-01   1.00800           0
      6713 MEMB     58       SAPE     H11Y     HAL2     0.900000E-01   1.00800           0
      6714 MEMB     58       SAPE     C312     CTL2    -0.180000       12.0110           0
      6715 MEMB     58       SAPE     H12X     HAL2     0.900000E-01   1.00800           0
      6716 MEMB     58       SAPE     H12Y     HAL2     0.900000E-01   1.00800           0
      6717 MEMB     58       SAPE     C313     CTL2    -0.180000       12.0110           0
      6718 MEMB     58       SAPE     H13X     HAL2     0.900000E-01   1.00800           0
      6719 MEMB     58       SAPE     H13Y     HAL2     0.900000E-01   1.00800           0
      6720 MEMB     58       SAPE     C314     CTL2    -0.180000       12.0110           0
      6721 MEMB     58       SAPE     H14X     HAL2     0.900000E-01   1.00800           0
      6722 MEMB     58       SAPE     H14Y     HAL2     0.900000E-01   1.00800           0
      6723 MEMB     58       SAPE     C315     CTL2    -0.180000       12.0110           0
      6724 MEMB     58       SAPE     H15X     HAL2     0.900000E-01   1.00800           0
      6725 MEMB     58       SAPE     H15Y     HAL2     0.900000E-01   1.00800           0
      6726 MEMB     58       SAPE     C316     CTL2    -0.180000       12.0110           0
      6727 MEMB     58       SAPE     H16X     HAL2     0.900000E-01   1.00800           0
      6728 MEMB     58       SAPE     H16Y     HAL2     0.900000E-01   1.00800           0
      6729 MEMB     58       SAPE     C317     CTL2    -0.180000       12.0110           0
      6730 MEMB     58       SAPE     H17X     HAL2     0.900000E-01   1.00800           0
      6731 MEMB     58       SAPE     H17Y     HAL2     0.900000E-01   1.00800           0
      6732 MEMB     58       SAPE     C318     CTL3    -0.270000       12.0110           0
      6733 MEMB     58       SAPE     H18X     HAL3     0.900000E-01   1.00800           0
      6734 MEMB     58       SAPE     H18Y     HAL3     0.900000E-01   1.00800           0
      6735 MEMB     58       SAPE     H18Z     HAL3     0.900000E-01   1.00800           0
      6736 MEMB     59       SAPE     N        NH3L    -0.300000       14.0070           0
      6737 MEMB     59       SAPE     HN1      HCL      0.330000       1.00800           0
      6738 MEMB     59       SAPE     HN2      HCL      0.330000       1.00800           0
      6739 MEMB     59       SAPE     HN3      HCL      0.330000       1.00800           0
      6740 MEMB     59       SAPE     C12      CTL2     0.130000       12.0110           0
      6741 MEMB     59       SAPE     H12A     HAL2     0.900000E-01   1.00800           0
      6742 MEMB     59       SAPE     H12B     HAL2     0.900000E-01   1.00800           0
      6743 MEMB     59       SAPE     C11      CTL2    -0.800000E-01   12.0110           0
      6744 MEMB     59       SAPE     H11A     HAL2     0.900000E-01   1.00800           0
      6745 MEMB     59       SAPE     H11B     HAL2     0.900000E-01   1.00800           0
      6746 MEMB     59       SAPE     P        PL        1.50000       30.9740           0
      6747 MEMB     59       SAPE     O13      O2L     -0.780000       15.9994           0
      6748 MEMB     59       SAPE     O14      O2L     -0.780000       15.9994           0
      6749 MEMB     59       SAPE     O12      OSLP    -0.570000       15.9994           0
      6750 MEMB     59       SAPE     O11      OSLP    -0.570000       15.9994           0
      6751 MEMB     59       SAPE     C1       CTL2    -0.800000E-01   12.0110           0
      6752 MEMB     59       SAPE     HA       HAL2     0.900000E-01   1.00800           0
      6753 MEMB     59       SAPE     HB       HAL2     0.900000E-01   1.00800           0
      6754 MEMB     59       SAPE     C2       CTL1     0.170000       12.0110           0
      6755 MEMB     59       SAPE     HS       HAL1     0.900000E-01   1.00800           0
      6756 MEMB     59       SAPE     O21      OSL     -0.490000       15.9994           0
      6757 MEMB     59       SAPE     C21      CL       0.900000       12.0110           0
      6758 MEMB     59       SAPE     O22      OBL     -0.630000       15.9994           0
      6759 MEMB     59       SAPE     C22      CTL2    -0.220000       12.0110           0
      6760 MEMB     59       SAPE     H2R      HAL2     0.900000E-01   1.00800           0
      6761 MEMB     59       SAPE     H2S      HAL2     0.900000E-01   1.00800           0
      6762 MEMB     59       SAPE     C3       CTL2     0.800000E-01   12.0110           0
      6763 MEMB     59       SAPE     HX       HAL2     0.900000E-01   1.00800           0
      6764 MEMB     59       SAPE     HY       HAL2     0.900000E-01   1.00800           0
      6765 MEMB     59       SAPE     O31      OSL     -0.490000       15.9994           0
      6766 MEMB     59       SAPE     C31      CL       0.900000       12.0110           0
      6767 MEMB     59       SAPE     O32      OBL     -0.630000       15.9994           0
      6768 MEMB     59       SAPE     C32      CTL2    -0.220000       12.0110           0
      6769 MEMB     59       SAPE     H2X      HAL2     0.900000E-01   1.00800           0
      6770 MEMB     59       SAPE     H2Y      HAL2     0.900000E-01   1.00800           0
      6771 MEMB     59       SAPE     C23      CTL2    -0.180000       12.0110           0
      6772 MEMB     59       SAPE     H3R      HAL2     0.900000E-01   1.00800           0
      6773 MEMB     59       SAPE     H3S      HAL2     0.900000E-01   1.00800           0
      6774 MEMB     59       SAPE     C24      CTL2    -0.180000       12.0110           0
      6775 MEMB     59       SAPE     H4R      HAL2     0.900000E-01   1.00800           0
      6776 MEMB     59       SAPE     H4S      HAL2     0.900000E-01   1.00800           0
      6777 MEMB     59       SAPE     C25      CEL1    -0.150000       12.0110           0
      6778 MEMB     59       SAPE     H5R      HEL1     0.150000       1.00800           0
      6779 MEMB     59       SAPE     C26      CEL1    -0.150000       12.0110           0
      6780 MEMB     59       SAPE     H6R      HEL1     0.150000       1.00800           0
      6781 MEMB     59       SAPE     C27      CTL2    -0.180000       12.0110           0
      6782 MEMB     59       SAPE     H7R      HAL2     0.900000E-01   1.00800           0
      6783 MEMB     59       SAPE     H7S      HAL2     0.900000E-01   1.00800           0
      6784 MEMB     59       SAPE     C28      CEL1    -0.150000       12.0110           0
      6785 MEMB     59       SAPE     H8R      HEL1     0.150000       1.00800           0
      6786 MEMB     59       SAPE     C29      CEL1    -0.150000       12.0110           0
      6787 MEMB     59       SAPE     H9R      HEL1     0.150000       1.00800           0
      6788 MEMB     59       SAPE     C210     CTL2    -0.180000       12.0110           0
      6789 MEMB     59       SAPE     H10R     HAL2     0.900000E-01   1.00800           0
      6790 MEMB     59       SAPE     H10S     HAL2     0.900000E-01   1.00800           0
      6791 MEMB     59       SAPE     C211     CEL1    -0.150000       12.0110           0
      6792 MEMB     59       SAPE     H11R     HEL1     0.150000       1.00800           0
      6793 MEMB     59       SAPE     C212     CEL1    -0.150000       12.0110           0
      6794 MEMB     59       SAPE     H12R     HEL1     0.150000       1.00800           0
      6795 MEMB     59       SAPE     C213     CTL2    -0.180000       12.0110           0
      6796 MEMB     59       SAPE     H13R     HAL2     0.900000E-01   1.00800           0
      6797 MEMB     59       SAPE     H13S     HAL2     0.900000E-01   1.00800           0
      6798 MEMB     59       SAPE     C214     CEL1    -0.150000       12.0110           0
      6799 MEMB     59       SAPE     H14R     HEL1     0.150000       1.00800           0
      6800 MEMB     59       SAPE     C215     CEL1    -0.150000       12.0110           0
      6801 MEMB     59       SAPE     H15R     HEL1     0.150000       1.00800           0
      6802 MEMB     59       SAPE     C216     CTL2    -0.180000       12.0110           0
      6803 MEMB     59       SAPE     H16R     HAL2     0.900000E-01   1.00800           0
      6804 MEMB     59       SAPE     H16S     HAL2     0.900000E-01   1.00800           0
      6805 MEMB     59       SAPE     C217     CTL2    -0.180000       12.0110           0
      6806 MEMB     59       SAPE     H17R     HAL2     0.900000E-01   1.00800           0
      6807 MEMB     59       SAPE     H17S     HAL2     0.900000E-01   1.00800           0
      6808 MEMB     59       SAPE     C218     CTL2    -0.180000       12.0110           0
      6809 MEMB     59       SAPE     H18R     HAL2     0.900000E-01   1.00800           0
      6810 MEMB     59       SAPE     H18S     HAL2     0.900000E-01   1.00800           0
      6811 MEMB     59       SAPE     C219     CTL2    -0.180000       12.0110           0
      6812 MEMB     59       SAPE     H19R     HAL2     0.900000E-01   1.00800           0
      6813 MEMB     59       SAPE     H19S     HAL2     0.900000E-01   1.00800           0
      6814 MEMB     59       SAPE     C220     CTL3    -0.270000       12.0110           0
      6815 MEMB     59       SAPE     H20R     HAL3     0.900000E-01   1.00800           0
      6816 MEMB     59       SAPE     H20S     HAL3     0.900000E-01   1.00800           0
      6817 MEMB     59       SAPE     H20T     HAL3     0.900000E-01   1.00800           0
      6818 MEMB     59       SAPE     C33      CTL2    -0.180000       12.0110           0
      6819 MEMB     59       SAPE     H3X      HAL2     0.900000E-01   1.00800           0
      6820 MEMB     59       SAPE     H3Y      HAL2     0.900000E-01   1.00800           0
      6821 MEMB     59       SAPE     C34      CTL2    -0.180000       12.0110           0
      6822 MEMB     59       SAPE     H4X      HAL2     0.900000E-01   1.00800           0
      6823 MEMB     59       SAPE     H4Y      HAL2     0.900000E-01   1.00800           0
      6824 MEMB     59       SAPE     C35      CTL2    -0.180000       12.0110           0
      6825 MEMB     59       SAPE     H5X      HAL2     0.900000E-01   1.00800           0
      6826 MEMB     59       SAPE     H5Y      HAL2     0.900000E-01   1.00800           0
      6827 MEMB     59       SAPE     C36      CTL2    -0.180000       12.0110           0
      6828 MEMB     59       SAPE     H6X      HAL2     0.900000E-01   1.00800           0
      6829 MEMB     59       SAPE     H6Y      HAL2     0.900000E-01   1.00800           0
      6830 MEMB     59       SAPE     C37      CTL2    -0.180000       12.0110           0
      6831 MEMB     59       SAPE     H7X      HAL2     0.900000E-01   1.00800           0
      6832 MEMB     59       SAPE     H7Y      HAL2     0.900000E-01   1.00800           0
      6833 MEMB     59       SAPE     C38      CTL2    -0.180000       12.0110           0
      6834 MEMB     59       SAPE     H8X      HAL2     0.900000E-01   1.00800           0
      6835 MEMB     59       SAPE     H8Y      HAL2     0.900000E-01   1.00800           0
      6836 MEMB     59       SAPE     C39      CTL2    -0.180000       12.0110           0
      6837 MEMB     59       SAPE     H9X      HAL2     0.900000E-01   1.00800           0
      6838 MEMB     59       SAPE     H9Y      HAL2     0.900000E-01   1.00800           0
      6839 MEMB     59       SAPE     C310     CTL2    -0.180000       12.0110           0
      6840 MEMB     59       SAPE     H10X     HAL2     0.900000E-01   1.00800           0
      6841 MEMB     59       SAPE     H10Y     HAL2     0.900000E-01   1.00800           0
      6842 MEMB     59       SAPE     C311     CTL2    -0.180000       12.0110           0
      6843 MEMB     59       SAPE     H11X     HAL2     0.900000E-01   1.00800           0
      6844 MEMB     59       SAPE     H11Y     HAL2     0.900000E-01   1.00800           0
      6845 MEMB     59       SAPE     C312     CTL2    -0.180000       12.0110           0
      6846 MEMB     59       SAPE     H12X     HAL2     0.900000E-01   1.00800           0
      6847 MEMB     59       SAPE     H12Y     HAL2     0.900000E-01   1.00800           0
      6848 MEMB     59       SAPE     C313     CTL2    -0.180000       12.0110           0
      6849 MEMB     59       SAPE     H13X     HAL2     0.900000E-01   1.00800           0
      6850 MEMB     59       SAPE     H13Y     HAL2     0.900000E-01   1.00800           0
      6851 MEMB     59       SAPE     C314     CTL2    -0.180000       12.0110           0
      6852 MEMB     59       SAPE     H14X     HAL2     0.900000E-01   1.00800           0
      6853 MEMB     59       SAPE     H14Y     HAL2     0.900000E-01   1.00800           0
      6854 MEMB     59       SAPE     C315     CTL2    -0.180000       12.0110           0
      6855 MEMB     59       SAPE     H15X     HAL2     0.900000E-01   1.00800           0
      6856 MEMB     59       SAPE     H15Y     HAL2     0.900000E-01   1.00800           0
      6857 MEMB     59       SAPE     C316     CTL2    -0.180000       12.0110           0
      6858 MEMB     59       SAPE     H16X     HAL2     0.900000E-01   1.00800           0
      6859 MEMB     59       SAPE     H16Y     HAL2     0.900000E-01   1.00800           0
      6860 MEMB     59       SAPE     C317     CTL2    -0.180000       12.0110           0
      6861 MEMB     59       SAPE     H17X     HAL2     0.900000E-01   1.00800           0
      6862 MEMB     59       SAPE     H17Y     HAL2     0.900000E-01   1.00800           0
      6863 MEMB     59       SAPE     C318     CTL3    -0.270000       12.0110           0
      6864 MEMB     59       SAPE     H18X     HAL3     0.900000E-01   1.00800           0
      6865 MEMB     59       SAPE     H18Y     HAL3     0.900000E-01   1.00800           0
      6866 MEMB     59       SAPE     H18Z     HAL3     0.900000E-01   1.00800           0
      6867 MEMB     60       SOPE     N        NH3L    -0.300000       14.0070           0
      6868 MEMB     60       SOPE     HN1      HCL      0.330000       1.00800           0
      6869 MEMB     60       SOPE     HN2      HCL      0.330000       1.00800           0
      6870 MEMB     60       SOPE     HN3      HCL      0.330000       1.00800           0
      6871 MEMB     60       SOPE     C12      CTL2     0.130000       12.0110           0
      6872 MEMB     60       SOPE     H12A     HAL2     0.900000E-01   1.00800           0
      6873 MEMB     60       SOPE     H12B     HAL2     0.900000E-01   1.00800           0
      6874 MEMB     60       SOPE     C11      CTL2    -0.800000E-01   12.0110           0
      6875 MEMB     60       SOPE     H11A     HAL2     0.900000E-01   1.00800           0
      6876 MEMB     60       SOPE     H11B     HAL2     0.900000E-01   1.00800           0
      6877 MEMB     60       SOPE     P        PL        1.50000       30.9740           0
      6878 MEMB     60       SOPE     O13      O2L     -0.780000       15.9994           0
      6879 MEMB     60       SOPE     O14      O2L     -0.780000       15.9994           0
      6880 MEMB     60       SOPE     O12      OSLP    -0.570000       15.9994           0
      6881 MEMB     60       SOPE     O11      OSLP    -0.570000       15.9994           0
      6882 MEMB     60       SOPE     C1       CTL2    -0.800000E-01   12.0110           0
      6883 MEMB     60       SOPE     HA       HAL2     0.900000E-01   1.00800           0
      6884 MEMB     60       SOPE     HB       HAL2     0.900000E-01   1.00800           0
      6885 MEMB     60       SOPE     C2       CTL1     0.170000       12.0110           0
      6886 MEMB     60       SOPE     HS       HAL1     0.900000E-01   1.00800           0
      6887 MEMB     60       SOPE     O21      OSL     -0.490000       15.9994           0
      6888 MEMB     60       SOPE     C21      CL       0.900000       12.0110           0
      6889 MEMB     60       SOPE     O22      OBL     -0.630000       15.9994           0
      6890 MEMB     60       SOPE     C22      CTL2    -0.220000       12.0110           0
      6891 MEMB     60       SOPE     H2R      HAL2     0.900000E-01   1.00800           0
      6892 MEMB     60       SOPE     H2S      HAL2     0.900000E-01   1.00800           0
      6893 MEMB     60       SOPE     C3       CTL2     0.800000E-01   12.0110           0
      6894 MEMB     60       SOPE     HX       HAL2     0.900000E-01   1.00800           0
      6895 MEMB     60       SOPE     HY       HAL2     0.900000E-01   1.00800           0
      6896 MEMB     60       SOPE     O31      OSL     -0.490000       15.9994           0
      6897 MEMB     60       SOPE     C31      CL       0.900000       12.0110           0
      6898 MEMB     60       SOPE     O32      OBL     -0.630000       15.9994           0
      6899 MEMB     60       SOPE     C32      CTL2    -0.220000       12.0110           0
      6900 MEMB     60       SOPE     H2X      HAL2     0.900000E-01   1.00800           0
      6901 MEMB     60       SOPE     H2Y      HAL2     0.900000E-01   1.00800           0
      6902 MEMB     60       SOPE     C23      CTL2    -0.180000       12.0110           0
      6903 MEMB     60       SOPE     H3R      HAL2     0.900000E-01   1.00800           0
      6904 MEMB     60       SOPE     H3S      HAL2     0.900000E-01   1.00800           0
      6905 MEMB     60       SOPE     C24      CTL2    -0.180000       12.0110           0
      6906 MEMB     60       SOPE     H4R      HAL2     0.900000E-01   1.00800           0
      6907 MEMB     60       SOPE     H4S      HAL2     0.900000E-01   1.00800           0
      6908 MEMB     60       SOPE     C25      CTL2    -0.180000       12.0110           0
      6909 MEMB     60       SOPE     H5R      HAL2     0.900000E-01   1.00800           0
      6910 MEMB     60       SOPE     H5S      HAL2     0.900000E-01   1.00800           0
      6911 MEMB     60       SOPE     C26      CTL2    -0.180000       12.0110           0
      6912 MEMB     60       SOPE     H6R      HAL2     0.900000E-01   1.00800           0
      6913 MEMB     60       SOPE     H6S      HAL2     0.900000E-01   1.00800           0
      6914 MEMB     60       SOPE     C27      CTL2    -0.180000       12.0110           0
      6915 MEMB     60       SOPE     H7R      HAL2     0.900000E-01   1.00800           0
      6916 MEMB     60       SOPE     H7S      HAL2     0.900000E-01   1.00800           0
      6917 MEMB     60       SOPE     C28      CTL2    -0.180000       12.0110           0
      6918 MEMB     60       SOPE     H8R      HAL2     0.900000E-01   1.00800           0
      6919 MEMB     60       SOPE     H8S      HAL2     0.900000E-01   1.00800           0
      6920 MEMB     60       SOPE     C29      CEL1    -0.150000       12.0110           0
      6921 MEMB     60       SOPE     H91      HEL1     0.150000       1.00800           0
      6922 MEMB     60       SOPE     C210     CEL1    -0.150000       12.0110           0
      6923 MEMB     60       SOPE     H101     HEL1     0.150000       1.00800           0
      6924 MEMB     60       SOPE     C211     CTL2    -0.180000       12.0110           0
      6925 MEMB     60       SOPE     H11R     HAL2     0.900000E-01   1.00800           0
      6926 MEMB     60       SOPE     H11S     HAL2     0.900000E-01   1.00800           0
      6927 MEMB     60       SOPE     C212     CTL2    -0.180000       12.0110           0
      6928 MEMB     60       SOPE     H12R     HAL2     0.900000E-01   1.00800           0
      6929 MEMB     60       SOPE     H12S     HAL2     0.900000E-01   1.00800           0
      6930 MEMB     60       SOPE     C213     CTL2    -0.180000       12.0110           0
      6931 MEMB     60       SOPE     H13R     HAL2     0.900000E-01   1.00800           0
      6932 MEMB     60       SOPE     H13S     HAL2     0.900000E-01   1.00800           0
      6933 MEMB     60       SOPE     C214     CTL2    -0.180000       12.0110           0
      6934 MEMB     60       SOPE     H14R     HAL2     0.900000E-01   1.00800           0
      6935 MEMB     60       SOPE     H14S     HAL2     0.900000E-01   1.00800           0
      6936 MEMB     60       SOPE     C215     CTL2    -0.180000       12.0110           0
      6937 MEMB     60       SOPE     H15R     HAL2     0.900000E-01   1.00800           0
      6938 MEMB     60       SOPE     H15S     HAL2     0.900000E-01   1.00800           0
      6939 MEMB     60       SOPE     C216     CTL2    -0.180000       12.0110           0
      6940 MEMB     60       SOPE     H16R     HAL2     0.900000E-01   1.00800           0
      6941 MEMB     60       SOPE     H16S     HAL2     0.900000E-01   1.00800           0
      6942 MEMB     60       SOPE     C217     CTL2    -0.180000       12.0110           0
      6943 MEMB     60       SOPE     H17R     HAL2     0.900000E-01   1.00800           0
      6944 MEMB     60       SOPE     H17S     HAL2     0.900000E-01   1.00800           0
      6945 MEMB     60       SOPE     C218     CTL3    -0.270000       12.0110           0
      6946 MEMB     60       SOPE     H18R     HAL3     0.900000E-01   1.00800           0
      6947 MEMB     60       SOPE     H18S     HAL3     0.900000E-01   1.00800           0
      6948 MEMB     60       SOPE     H18T     HAL3     0.900000E-01   1.00800           0
      6949 MEMB     60       SOPE     C33      CTL2    -0.180000       12.0110           0
      6950 MEMB     60       SOPE     H3X      HAL2     0.900000E-01   1.00800           0
      6951 MEMB     60       SOPE     H3Y      HAL2     0.900000E-01   1.00800           0
      6952 MEMB     60       SOPE     C34      CTL2    -0.180000       12.0110           0
      6953 MEMB     60       SOPE     H4X      HAL2     0.900000E-01   1.00800           0
      6954 MEMB     60       SOPE     H4Y      HAL2     0.900000E-01   1.00800           0
      6955 MEMB     60       SOPE     C35      CTL2    -0.180000       12.0110           0
      6956 MEMB     60       SOPE     H5X      HAL2     0.900000E-01   1.00800           0
      6957 MEMB     60       SOPE     H5Y      HAL2     0.900000E-01   1.00800           0
      6958 MEMB     60       SOPE     C36      CTL2    -0.180000       12.0110           0
      6959 MEMB     60       SOPE     H6X      HAL2     0.900000E-01   1.00800           0
      6960 MEMB     60       SOPE     H6Y      HAL2     0.900000E-01   1.00800           0
      6961 MEMB     60       SOPE     C37      CTL2    -0.180000       12.0110           0
      6962 MEMB     60       SOPE     H7X      HAL2     0.900000E-01   1.00800           0
      6963 MEMB     60       SOPE     H7Y      HAL2     0.900000E-01   1.00800           0
      6964 MEMB     60       SOPE     C38      CTL2    -0.180000       12.0110           0
      6965 MEMB     60       SOPE     H8X      HAL2     0.900000E-01   1.00800           0
      6966 MEMB     60       SOPE     H8Y      HAL2     0.900000E-01   1.00800           0
      6967 MEMB     60       SOPE     C39      CTL2    -0.180000       12.0110           0
      6968 MEMB     60       SOPE     H9X      HAL2     0.900000E-01   1.00800           0
      6969 MEMB     60       SOPE     H9Y      HAL2     0.900000E-01   1.00800           0
      6970 MEMB     60       SOPE     C310     CTL2    -0.180000       12.0110           0
      6971 MEMB     60       SOPE     H10X     HAL2     0.900000E-01   1.00800           0
      6972 MEMB     60       SOPE     H10Y     HAL2     0.900000E-01   1.00800           0
      6973 MEMB     60       SOPE     C311     CTL2    -0.180000       12.0110           0
      6974 MEMB     60       SOPE     H11X     HAL2     0.900000E-01   1.00800           0
      6975 MEMB     60       SOPE     H11Y     HAL2     0.900000E-01   1.00800           0
      6976 MEMB     60       SOPE     C312     CTL2    -0.180000       12.0110           0
      6977 MEMB     60       SOPE     H12X     HAL2     0.900000E-01   1.00800           0
      6978 MEMB     60       SOPE     H12Y     HAL2     0.900000E-01   1.00800           0
      6979 MEMB     60       SOPE     C313     CTL2    -0.180000       12.0110           0
      6980 MEMB     60       SOPE     H13X     HAL2     0.900000E-01   1.00800           0
      6981 MEMB     60       SOPE     H13Y     HAL2     0.900000E-01   1.00800           0
      6982 MEMB     60       SOPE     C314     CTL2    -0.180000       12.0110           0
      6983 MEMB     60       SOPE     H14X     HAL2     0.900000E-01   1.00800           0
      6984 MEMB     60       SOPE     H14Y     HAL2     0.900000E-01   1.00800           0
      6985 MEMB     60       SOPE     C315     CTL2    -0.180000       12.0110           0
      6986 MEMB     60       SOPE     H15X     HAL2     0.900000E-01   1.00800           0
      6987 MEMB     60       SOPE     H15Y     HAL2     0.900000E-01   1.00800           0
      6988 MEMB     60       SOPE     C316     CTL2    -0.180000       12.0110           0
      6989 MEMB     60       SOPE     H16X     HAL2     0.900000E-01   1.00800           0
      6990 MEMB     60       SOPE     H16Y     HAL2     0.900000E-01   1.00800           0
      6991 MEMB     60       SOPE     C317     CTL2    -0.180000       12.0110           0
      6992 MEMB     60       SOPE     H17X     HAL2     0.900000E-01   1.00800           0
      6993 MEMB     60       SOPE     H17Y     HAL2     0.900000E-01   1.00800           0
      6994 MEMB     60       SOPE     C318     CTL3    -0.270000       12.0110           0
      6995 MEMB     60       SOPE     H18X     HAL3     0.900000E-01   1.00800           0
      6996 MEMB     60       SOPE     H18Y     HAL3     0.900000E-01   1.00800           0
      6997 MEMB     60       SOPE     H18Z     HAL3     0.900000E-01   1.00800           0
      6998 MEMB     61       SAPE     N        NH3L    -0.300000       14.0070           0
      6999 MEMB     61       SAPE     HN1      HCL      0.330000       1.00800           0
      7000 MEMB     61       SAPE     HN2      HCL      0.330000       1.00800           0
      7001 MEMB     61       SAPE     HN3      HCL      0.330000       1.00800           0
      7002 MEMB     61       SAPE     C12      CTL2     0.130000       12.0110           0
      7003 MEMB     61       SAPE     H12A     HAL2     0.900000E-01   1.00800           0
      7004 MEMB     61       SAPE     H12B     HAL2     0.900000E-01   1.00800           0
      7005 MEMB     61       SAPE     C11      CTL2    -0.800000E-01   12.0110           0
      7006 MEMB     61       SAPE     H11A     HAL2     0.900000E-01   1.00800           0
      7007 MEMB     61       SAPE     H11B     HAL2     0.900000E-01   1.00800           0
      7008 MEMB     61       SAPE     P        PL        1.50000       30.9740           0
      7009 MEMB     61       SAPE     O13      O2L     -0.780000       15.9994           0
      7010 MEMB     61       SAPE     O14      O2L     -0.780000       15.9994           0
      7011 MEMB     61       SAPE     O12      OSLP    -0.570000       15.9994           0
      7012 MEMB     61       SAPE     O11      OSLP    -0.570000       15.9994           0
      7013 MEMB     61       SAPE     C1       CTL2    -0.800000E-01   12.0110           0
      7014 MEMB     61       SAPE     HA       HAL2     0.900000E-01   1.00800           0
      7015 MEMB     61       SAPE     HB       HAL2     0.900000E-01   1.00800           0
      7016 MEMB     61       SAPE     C2       CTL1     0.170000       12.0110           0
      7017 MEMB     61       SAPE     HS       HAL1     0.900000E-01   1.00800           0
      7018 MEMB     61       SAPE     O21      OSL     -0.490000       15.9994           0
      7019 MEMB     61       SAPE     C21      CL       0.900000       12.0110           0
      7020 MEMB     61       SAPE     O22      OBL     -0.630000       15.9994           0
      7021 MEMB     61       SAPE     C22      CTL2    -0.220000       12.0110           0
      7022 MEMB     61       SAPE     H2R      HAL2     0.900000E-01   1.00800           0
      7023 MEMB     61       SAPE     H2S      HAL2     0.900000E-01   1.00800           0
      7024 MEMB     61       SAPE     C3       CTL2     0.800000E-01   12.0110           0
      7025 MEMB     61       SAPE     HX       HAL2     0.900000E-01   1.00800           0
      7026 MEMB     61       SAPE     HY       HAL2     0.900000E-01   1.00800           0
      7027 MEMB     61       SAPE     O31      OSL     -0.490000       15.9994           0
      7028 MEMB     61       SAPE     C31      CL       0.900000       12.0110           0
      7029 MEMB     61       SAPE     O32      OBL     -0.630000       15.9994           0
      7030 MEMB     61       SAPE     C32      CTL2    -0.220000       12.0110           0
      7031 MEMB     61       SAPE     H2X      HAL2     0.900000E-01   1.00800           0
      7032 MEMB     61       SAPE     H2Y      HAL2     0.900000E-01   1.00800           0
      7033 MEMB     61       SAPE     C23      CTL2    -0.180000       12.0110           0
      7034 MEMB     61       SAPE     H3R      HAL2     0.900000E-01   1.00800           0
      7035 MEMB     61       SAPE     H3S      HAL2     0.900000E-01   1.00800           0
      7036 MEMB     61       SAPE     C24      CTL2    -0.180000       12.0110           0
      7037 MEMB     61       SAPE     H4R      HAL2     0.900000E-01   1.00800           0
      7038 MEMB     61       SAPE     H4S      HAL2     0.900000E-01   1.00800           0
      7039 MEMB     61       SAPE     C25      CEL1    -0.150000       12.0110           0
      7040 MEMB     61       SAPE     H5R      HEL1     0.150000       1.00800           0
      7041 MEMB     61       SAPE     C26      CEL1    -0.150000       12.0110           0
      7042 MEMB     61       SAPE     H6R      HEL1     0.150000       1.00800           0
      7043 MEMB     61       SAPE     C27      CTL2    -0.180000       12.0110           0
      7044 MEMB     61       SAPE     H7R      HAL2     0.900000E-01   1.00800           0
      7045 MEMB     61       SAPE     H7S      HAL2     0.900000E-01   1.00800           0
      7046 MEMB     61       SAPE     C28      CEL1    -0.150000       12.0110           0
      7047 MEMB     61       SAPE     H8R      HEL1     0.150000       1.00800           0
      7048 MEMB     61       SAPE     C29      CEL1    -0.150000       12.0110           0
      7049 MEMB     61       SAPE     H9R      HEL1     0.150000       1.00800           0
      7050 MEMB     61       SAPE     C210     CTL2    -0.180000       12.0110           0
      7051 MEMB     61       SAPE     H10R     HAL2     0.900000E-01   1.00800           0
      7052 MEMB     61       SAPE     H10S     HAL2     0.900000E-01   1.00800           0
      7053 MEMB     61       SAPE     C211     CEL1    -0.150000       12.0110           0
      7054 MEMB     61       SAPE     H11R     HEL1     0.150000       1.00800           0
      7055 MEMB     61       SAPE     C212     CEL1    -0.150000       12.0110           0
      7056 MEMB     61       SAPE     H12R     HEL1     0.150000       1.00800           0
      7057 MEMB     61       SAPE     C213     CTL2    -0.180000       12.0110           0
      7058 MEMB     61       SAPE     H13R     HAL2     0.900000E-01   1.00800           0
      7059 MEMB     61       SAPE     H13S     HAL2     0.900000E-01   1.00800           0
      7060 MEMB     61       SAPE     C214     CEL1    -0.150000       12.0110           0
      7061 MEMB     61       SAPE     H14R     HEL1     0.150000       1.00800           0
      7062 MEMB     61       SAPE     C215     CEL1    -0.150000       12.0110           0
      7063 MEMB     61       SAPE     H15R     HEL1     0.150000       1.00800           0
      7064 MEMB     61       SAPE     C216     CTL2    -0.180000       12.0110           0
      7065 MEMB     61       SAPE     H16R     HAL2     0.900000E-01   1.00800           0
      7066 MEMB     61       SAPE     H16S     HAL2     0.900000E-01   1.00800           0
      7067 MEMB     61       SAPE     C217     CTL2    -0.180000       12.0110           0
      7068 MEMB     61       SAPE     H17R     HAL2     0.900000E-01   1.00800           0
      7069 MEMB     61       SAPE     H17S     HAL2     0.900000E-01   1.00800           0
      7070 MEMB     61       SAPE     C218     CTL2    -0.180000       12.0110           0
      7071 MEMB     61       SAPE     H18R     HAL2     0.900000E-01   1.00800           0
      7072 MEMB     61       SAPE     H18S     HAL2     0.900000E-01   1.00800           0
      7073 MEMB     61       SAPE     C219     CTL2    -0.180000       12.0110           0
      7074 MEMB     61       SAPE     H19R     HAL2     0.900000E-01   1.00800           0
      7075 MEMB     61       SAPE     H19S     HAL2     0.900000E-01   1.00800           0
      7076 MEMB     61       SAPE     C220     CTL3    -0.270000       12.0110           0
      7077 MEMB     61       SAPE     H20R     HAL3     0.900000E-01   1.00800           0
      7078 MEMB     61       SAPE     H20S     HAL3     0.900000E-01   1.00800           0
      7079 MEMB     61       SAPE     H20T     HAL3     0.900000E-01   1.00800           0
      7080 MEMB     61       SAPE     C33      CTL2    -0.180000       12.0110           0
      7081 MEMB     61       SAPE     H3X      HAL2     0.900000E-01   1.00800           0
      7082 MEMB     61       SAPE     H3Y      HAL2     0.900000E-01   1.00800           0
      7083 MEMB     61       SAPE     C34      CTL2    -0.180000       12.0110           0
      7084 MEMB     61       SAPE     H4X      HAL2     0.900000E-01   1.00800           0
      7085 MEMB     61       SAPE     H4Y      HAL2     0.900000E-01   1.00800           0
      7086 MEMB     61       SAPE     C35      CTL2    -0.180000       12.0110           0
      7087 MEMB     61       SAPE     H5X      HAL2     0.900000E-01   1.00800           0
      7088 MEMB     61       SAPE     H5Y      HAL2     0.900000E-01   1.00800           0
      7089 MEMB     61       SAPE     C36      CTL2    -0.180000       12.0110           0
      7090 MEMB     61       SAPE     H6X      HAL2     0.900000E-01   1.00800           0
      7091 MEMB     61       SAPE     H6Y      HAL2     0.900000E-01   1.00800           0
      7092 MEMB     61       SAPE     C37      CTL2    -0.180000       12.0110           0
      7093 MEMB     61       SAPE     H7X      HAL2     0.900000E-01   1.00800           0
      7094 MEMB     61       SAPE     H7Y      HAL2     0.900000E-01   1.00800           0
      7095 MEMB     61       SAPE     C38      CTL2    -0.180000       12.0110           0
      7096 MEMB     61       SAPE     H8X      HAL2     0.900000E-01   1.00800           0
      7097 MEMB     61       SAPE     H8Y      HAL2     0.900000E-01   1.00800           0
      7098 MEMB     61       SAPE     C39      CTL2    -0.180000       12.0110           0
      7099 MEMB     61       SAPE     H9X      HAL2     0.900000E-01   1.00800           0
      7100 MEMB     61       SAPE     H9Y      HAL2     0.900000E-01   1.00800           0
      7101 MEMB     61       SAPE     C310     CTL2    -0.180000       12.0110           0
      7102 MEMB     61       SAPE     H10X     HAL2     0.900000E-01   1.00800           0
      7103 MEMB     61       SAPE     H10Y     HAL2     0.900000E-01   1.00800           0
      7104 MEMB     61       SAPE     C311     CTL2    -0.180000       12.0110           0
      7105 MEMB     61       SAPE     H11X     HAL2     0.900000E-01   1.00800           0
      7106 MEMB     61       SAPE     H11Y     HAL2     0.900000E-01   1.00800           0
      7107 MEMB     61       SAPE     C312     CTL2    -0.180000       12.0110           0
      7108 MEMB     61       SAPE     H12X     HAL2     0.900000E-01   1.00800           0
      7109 MEMB     61       SAPE     H12Y     HAL2     0.900000E-01   1.00800           0
      7110 MEMB     61       SAPE     C313     CTL2    -0.180000       12.0110           0
      7111 MEMB     61       SAPE     H13X     HAL2     0.900000E-01   1.00800           0
      7112 MEMB     61       SAPE     H13Y     HAL2     0.900000E-01   1.00800           0
      7113 MEMB     61       SAPE     C314     CTL2    -0.180000       12.0110           0
      7114 MEMB     61       SAPE     H14X     HAL2     0.900000E-01   1.00800           0
      7115 MEMB     61       SAPE     H14Y     HAL2     0.900000E-01   1.00800           0
      7116 MEMB     61       SAPE     C315     CTL2    -0.180000       12.0110           0
      7117 MEMB     61       SAPE     H15X     HAL2     0.900000E-01   1.00800           0
      7118 MEMB     61       SAPE     H15Y     HAL2     0.900000E-01   1.00800           0
      7119 MEMB     61       SAPE     C316     CTL2    -0.180000       12.0110           0
      7120 MEMB     61       SAPE     H16X     HAL2     0.900000E-01   1.00800           0
      7121 MEMB     61       SAPE     H16Y     HAL2     0.900000E-01   1.00800           0
      7122 MEMB     61       SAPE     C317     CTL2    -0.180000       12.0110           0
      7123 MEMB     61       SAPE     H17X     HAL2     0.900000E-01   1.00800           0
      7124 MEMB     61       SAPE     H17Y     HAL2     0.900000E-01   1.00800           0
      7125 MEMB     61       SAPE     C318     CTL3    -0.270000       12.0110           0
      7126 MEMB     61       SAPE     H18X     HAL3     0.900000E-01   1.00800           0
      7127 MEMB     61       SAPE     H18Y     HAL3     0.900000E-01   1.00800           0
      7128 MEMB     61       SAPE     H18Z     HAL3     0.900000E-01   1.00800           0
      7129 MEMB     62       SAPC     N        NTL     -0.600000       14.0070           0
      7130 MEMB     62       SAPC     C12      CTL2    -0.100000       12.0110           0
      7131 MEMB     62       SAPC     H12A     HL       0.250000       1.00800           0
      7132 MEMB     62       SAPC     H12B     HL       0.250000       1.00800           0
      7133 MEMB     62       SAPC     C13      CTL5    -0.350000       12.0110           0
      7134 MEMB     62       SAPC     H13A     HL       0.250000       1.00800           0
      7135 MEMB     62       SAPC     H13B     HL       0.250000       1.00800           0
      7136 MEMB     62       SAPC     H13C     HL       0.250000       1.00800           0
      7137 MEMB     62       SAPC     C14      CTL5    -0.350000       12.0110           0
      7138 MEMB     62       SAPC     H14A     HL       0.250000       1.00800           0
      7139 MEMB     62       SAPC     H14B     HL       0.250000       1.00800           0
      7140 MEMB     62       SAPC     H14C     HL       0.250000       1.00800           0
      7141 MEMB     62       SAPC     C15      CTL5    -0.350000       12.0110           0
      7142 MEMB     62       SAPC     H15A     HL       0.250000       1.00800           0
      7143 MEMB     62       SAPC     H15B     HL       0.250000       1.00800           0
      7144 MEMB     62       SAPC     H15C     HL       0.250000       1.00800           0
      7145 MEMB     62       SAPC     C11      CTL2    -0.800000E-01   12.0110           0
      7146 MEMB     62       SAPC     H11A     HAL2     0.900000E-01   1.00800           0
      7147 MEMB     62       SAPC     H11B     HAL2     0.900000E-01   1.00800           0
      7148 MEMB     62       SAPC     P        PL        1.50000       30.9740           0
      7149 MEMB     62       SAPC     O13      O2L     -0.780000       15.9994           0
      7150 MEMB     62       SAPC     O14      O2L     -0.780000       15.9994           0
      7151 MEMB     62       SAPC     O12      OSLP    -0.570000       15.9994           0
      7152 MEMB     62       SAPC     O11      OSLP    -0.570000       15.9994           0
      7153 MEMB     62       SAPC     C1       CTL2    -0.800000E-01   12.0110           0
      7154 MEMB     62       SAPC     HA       HAL2     0.900000E-01   1.00800           0
      7155 MEMB     62       SAPC     HB       HAL2     0.900000E-01   1.00800           0
      7156 MEMB     62       SAPC     C2       CTL1     0.170000       12.0110           0
      7157 MEMB     62       SAPC     HS       HAL1     0.900000E-01   1.00800           0
      7158 MEMB     62       SAPC     O21      OSL     -0.490000       15.9994           0
      7159 MEMB     62       SAPC     C21      CL       0.900000       12.0110           0
      7160 MEMB     62       SAPC     O22      OBL     -0.630000       15.9994           0
      7161 MEMB     62       SAPC     C22      CTL2    -0.220000       12.0110           0
      7162 MEMB     62       SAPC     H2R      HAL2     0.900000E-01   1.00800           0
      7163 MEMB     62       SAPC     H2S      HAL2     0.900000E-01   1.00800           0
      7164 MEMB     62       SAPC     C3       CTL2     0.800000E-01   12.0110           0
      7165 MEMB     62       SAPC     HX       HAL2     0.900000E-01   1.00800           0
      7166 MEMB     62       SAPC     HY       HAL2     0.900000E-01   1.00800           0
      7167 MEMB     62       SAPC     O31      OSL     -0.490000       15.9994           0
      7168 MEMB     62       SAPC     C31      CL       0.900000       12.0110           0
      7169 MEMB     62       SAPC     O32      OBL     -0.630000       15.9994           0
      7170 MEMB     62       SAPC     C32      CTL2    -0.220000       12.0110           0
      7171 MEMB     62       SAPC     H2X      HAL2     0.900000E-01   1.00800           0
      7172 MEMB     62       SAPC     H2Y      HAL2     0.900000E-01   1.00800           0
      7173 MEMB     62       SAPC     C23      CTL2    -0.180000       12.0110           0
      7174 MEMB     62       SAPC     H3R      HAL2     0.900000E-01   1.00800           0
      7175 MEMB     62       SAPC     H3S      HAL2     0.900000E-01   1.00800           0
      7176 MEMB     62       SAPC     C24      CTL2    -0.180000       12.0110           0
      7177 MEMB     62       SAPC     H4R      HAL2     0.900000E-01   1.00800           0
      7178 MEMB     62       SAPC     H4S      HAL2     0.900000E-01   1.00800           0
      7179 MEMB     62       SAPC     C25      CEL1    -0.150000       12.0110           0
      7180 MEMB     62       SAPC     H5R      HEL1     0.150000       1.00800           0
      7181 MEMB     62       SAPC     C26      CEL1    -0.150000       12.0110           0
      7182 MEMB     62       SAPC     H6R      HEL1     0.150000       1.00800           0
      7183 MEMB     62       SAPC     C27      CTL2    -0.180000       12.0110           0
      7184 MEMB     62       SAPC     H7R      HAL2     0.900000E-01   1.00800           0
      7185 MEMB     62       SAPC     H7S      HAL2     0.900000E-01   1.00800           0
      7186 MEMB     62       SAPC     C28      CEL1    -0.150000       12.0110           0
      7187 MEMB     62       SAPC     H8R      HEL1     0.150000       1.00800           0
      7188 MEMB     62       SAPC     C29      CEL1    -0.150000       12.0110           0
      7189 MEMB     62       SAPC     H9R      HEL1     0.150000       1.00800           0
      7190 MEMB     62       SAPC     C210     CTL2    -0.180000       12.0110           0
      7191 MEMB     62       SAPC     H10R     HAL2     0.900000E-01   1.00800           0
      7192 MEMB     62       SAPC     H10S     HAL2     0.900000E-01   1.00800           0
      7193 MEMB     62       SAPC     C211     CEL1    -0.150000       12.0110           0
      7194 MEMB     62       SAPC     H11R     HEL1     0.150000       1.00800           0
      7195 MEMB     62       SAPC     C212     CEL1    -0.150000       12.0110           0
      7196 MEMB     62       SAPC     H12R     HEL1     0.150000       1.00800           0
      7197 MEMB     62       SAPC     C213     CTL2    -0.180000       12.0110           0
      7198 MEMB     62       SAPC     H13R     HAL2     0.900000E-01   1.00800           0
      7199 MEMB     62       SAPC     H13S     HAL2     0.900000E-01   1.00800           0
      7200 MEMB     62       SAPC     C214     CEL1    -0.150000       12.0110           0
      7201 MEMB     62       SAPC     H14R     HEL1     0.150000       1.00800           0
      7202 MEMB     62       SAPC     C215     CEL1    -0.150000       12.0110           0
      7203 MEMB     62       SAPC     H15R     HEL1     0.150000       1.00800           0
      7204 MEMB     62       SAPC     C216     CTL2    -0.180000       12.0110           0
      7205 MEMB     62       SAPC     H16R     HAL2     0.900000E-01   1.00800           0
      7206 MEMB     62       SAPC     H16S     HAL2     0.900000E-01   1.00800           0
      7207 MEMB     62       SAPC     C217     CTL2    -0.180000       12.0110           0
      7208 MEMB     62       SAPC     H17R     HAL2     0.900000E-01   1.00800           0
      7209 MEMB     62       SAPC     H17S     HAL2     0.900000E-01   1.00800           0
      7210 MEMB     62       SAPC     C218     CTL2    -0.270000       12.0110           0
      7211 MEMB     62       SAPC     H18R     HAL2     0.900000E-01   1.00800           0
      7212 MEMB     62       SAPC     H18S     HAL2     0.900000E-01   1.00800           0
      7213 MEMB     62       SAPC     C219     CTL2    -0.180000       12.0110           0
      7214 MEMB     62       SAPC     H19R     HAL2     0.900000E-01   1.00800           0
      7215 MEMB     62       SAPC     H19S     HAL2     0.900000E-01   1.00800           0
      7216 MEMB     62       SAPC     C220     CTL3    -0.180000       12.0110           0
      7217 MEMB     62       SAPC     H20R     HAL3     0.900000E-01   1.00800           0
      7218 MEMB     62       SAPC     H20S     HAL3     0.900000E-01   1.00800           0
      7219 MEMB     62       SAPC     H20T     HAL3     0.900000E-01   1.00800           0
      7220 MEMB     62       SAPC     C33      CTL2    -0.180000       12.0110           0
      7221 MEMB     62       SAPC     H3X      HAL2     0.900000E-01   1.00800           0
      7222 MEMB     62       SAPC     H3Y      HAL2     0.900000E-01   1.00800           0
      7223 MEMB     62       SAPC     C34      CTL2    -0.180000       12.0110           0
      7224 MEMB     62       SAPC     H4X      HAL2     0.900000E-01   1.00800           0
      7225 MEMB     62       SAPC     H4Y      HAL2     0.900000E-01   1.00800           0
      7226 MEMB     62       SAPC     C35      CTL2    -0.180000       12.0110           0
      7227 MEMB     62       SAPC     H5X      HAL2     0.900000E-01   1.00800           0
      7228 MEMB     62       SAPC     H5Y      HAL2     0.900000E-01   1.00800           0
      7229 MEMB     62       SAPC     C36      CTL2    -0.180000       12.0110           0
      7230 MEMB     62       SAPC     H6X      HAL2     0.900000E-01   1.00800           0
      7231 MEMB     62       SAPC     H6Y      HAL2     0.900000E-01   1.00800           0
      7232 MEMB     62       SAPC     C37      CTL2    -0.180000       12.0110           0
      7233 MEMB     62       SAPC     H7X      HAL2     0.900000E-01   1.00800           0
      7234 MEMB     62       SAPC     H7Y      HAL2     0.900000E-01   1.00800           0
      7235 MEMB     62       SAPC     C38      CTL2    -0.180000       12.0110           0
      7236 MEMB     62       SAPC     H8X      HAL2     0.900000E-01   1.00800           0
      7237 MEMB     62       SAPC     H8Y      HAL2     0.900000E-01   1.00800           0
      7238 MEMB     62       SAPC     C39      CTL2    -0.180000       12.0110           0
      7239 MEMB     62       SAPC     H9X      HAL2     0.900000E-01   1.00800           0
      7240 MEMB     62       SAPC     H9Y      HAL2     0.900000E-01   1.00800           0
      7241 MEMB     62       SAPC     C310     CTL2    -0.180000       12.0110           0
      7242 MEMB     62       SAPC     H10X     HAL2     0.900000E-01   1.00800           0
      7243 MEMB     62       SAPC     H10Y     HAL2     0.900000E-01   1.00800           0
      7244 MEMB     62       SAPC     C311     CTL2    -0.180000       12.0110           0
      7245 MEMB     62       SAPC     H11X     HAL2     0.900000E-01   1.00800           0
      7246 MEMB     62       SAPC     H11Y     HAL2     0.900000E-01   1.00800           0
      7247 MEMB     62       SAPC     C312     CTL2    -0.180000       12.0110           0
      7248 MEMB     62       SAPC     H12X     HAL2     0.900000E-01   1.00800           0
      7249 MEMB     62       SAPC     H12Y     HAL2     0.900000E-01   1.00800           0
      7250 MEMB     62       SAPC     C313     CTL2    -0.180000       12.0110           0
      7251 MEMB     62       SAPC     H13X     HAL2     0.900000E-01   1.00800           0
      7252 MEMB     62       SAPC     H13Y     HAL2     0.900000E-01   1.00800           0
      7253 MEMB     62       SAPC     C314     CTL2    -0.180000       12.0110           0
      7254 MEMB     62       SAPC     H14X     HAL2     0.900000E-01   1.00800           0
      7255 MEMB     62       SAPC     H14Y     HAL2     0.900000E-01   1.00800           0
      7256 MEMB     62       SAPC     C315     CTL2    -0.180000       12.0110           0
      7257 MEMB     62       SAPC     H15X     HAL2     0.900000E-01   1.00800           0
      7258 MEMB     62       SAPC     H15Y     HAL2     0.900000E-01   1.00800           0
      7259 MEMB     62       SAPC     C316     CTL2    -0.180000       12.0110           0
      7260 MEMB     62       SAPC     H16X     HAL2     0.900000E-01   1.00800           0
      7261 MEMB     62       SAPC     H16Y     HAL2     0.900000E-01   1.00800           0
      7262 MEMB     62       SAPC     C317     CTL2    -0.180000       12.0110           0
      7263 MEMB     62       SAPC     H17X     HAL2     0.900000E-01   1.00800           0
      7264 MEMB     62       SAPC     H17Y     HAL2     0.900000E-01   1.00800           0
      7265 MEMB     62       SAPC     C318     CTL3    -0.270000       12.0110           0
      7266 MEMB     62       SAPC     H18X     HAL3     0.900000E-01   1.00800           0
      7267 MEMB     62       SAPC     H18Y     HAL3     0.900000E-01   1.00800           0
      7268 MEMB     62       SAPC     H18Z     HAL3     0.900000E-01   1.00800           0
      7269 MEMB     63       OSM      N        NTL     -0.600000       14.0070           0
      7270 MEMB     63       OSM      C15      CTL5    -0.350000       12.0110           0
      7271 MEMB     63       OSM      H15A     HL       0.250000       1.00800           0
      7272 MEMB     63       OSM      H15B     HL       0.250000       1.00800           0
      7273 MEMB     63       OSM      H15C     HL       0.250000       1.00800           0
      7274 MEMB     63       OSM      C14      CTL5    -0.350000       12.0110           0
      7275 MEMB     63       OSM      H14A     HL       0.250000       1.00800           0
      7276 MEMB     63       OSM      H14B     HL       0.250000       1.00800           0
      7277 MEMB     63       OSM      H14C     HL       0.250000       1.00800           0
      7278 MEMB     63       OSM      C13      CTL5    -0.350000       12.0110           0
      7279 MEMB     63       OSM      H13A     HL       0.250000       1.00800           0
      7280 MEMB     63       OSM      H13B     HL       0.250000       1.00800           0
      7281 MEMB     63       OSM      H13C     HL       0.250000       1.00800           0
      7282 MEMB     63       OSM      C12      CTL2    -0.100000       12.0110           0
      7283 MEMB     63       OSM      H12A     HL       0.250000       1.00800           0
      7284 MEMB     63       OSM      H12B     HL       0.250000       1.00800           0
      7285 MEMB     63       OSM      C11      CTL2    -0.800000E-01   12.0110           0
      7286 MEMB     63       OSM      H11A     HAL2     0.900000E-01   1.00800           0
      7287 MEMB     63       OSM      H11B     HAL2     0.900000E-01   1.00800           0
      7288 MEMB     63       OSM      P        PL        1.50000       30.9740           0
      7289 MEMB     63       OSM      O13      O2L     -0.780000       15.9994           0
      7290 MEMB     63       OSM      O14      O2L     -0.780000       15.9994           0
      7291 MEMB     63       OSM      O11      OSLP    -0.570000       15.9994           0
      7292 MEMB     63       OSM      O12      OSLP    -0.570000       15.9994           0
      7293 MEMB     63       OSM      C1S      CTL2    -0.800000E-01   12.0110           0
      7294 MEMB     63       OSM      H1S      HAL2     0.900000E-01   1.00800           0
      7295 MEMB     63       OSM      H1T      HAL2     0.900000E-01   1.00800           0
      7296 MEMB     63       OSM      NF       NHL     -0.700000       14.0070           0
      7297 MEMB     63       OSM      HNF      H        0.350000       1.00800           0
      7298 MEMB     63       OSM      C2S      CTL1     0.300000       12.0110           0
      7299 MEMB     63       OSM      H2S      HAL1     0.500000E-01   1.00800           0
      7300 MEMB     63       OSM      C3S      CTO1     0.500000       12.0110           0
      7301 MEMB     63       OSM      H3S      HAL1    -0.110000       1.00800           0
      7302 MEMB     63       OSM      O3       OHL     -0.690000       15.9994           0
      7303 MEMB     63       OSM      HO3      HOL      0.300000       1.00800           0
      7304 MEMB     63       OSM      C4S      CEL3    -0.150000       12.0110           0
      7305 MEMB     63       OSM      H4S      HEL1     0.150000       1.00800           0
      7306 MEMB     63       OSM      C5S      CEL3    -0.150000       12.0110           0
      7307 MEMB     63       OSM      H5S      HEL1     0.150000       1.00800           0
      7308 MEMB     63       OSM      C6S      CTL2    -0.180000       12.0110           0
      7309 MEMB     63       OSM      H6S      HAL2     0.900000E-01   1.00800           0
      7310 MEMB     63       OSM      H6T      HAL2     0.900000E-01   1.00800           0
      7311 MEMB     63       OSM      C7S      CTL2    -0.180000       12.0110           0
      7312 MEMB     63       OSM      H7S      HAL2     0.900000E-01   1.00800           0
      7313 MEMB     63       OSM      H7T      HAL2     0.900000E-01   1.00800           0
      7314 MEMB     63       OSM      C8S      CTL2    -0.180000       12.0110           0
      7315 MEMB     63       OSM      H8S      HAL2     0.900000E-01   1.00800           0
      7316 MEMB     63       OSM      H8T      HAL2     0.900000E-01   1.00800           0
      7317 MEMB     63       OSM      C9S      CTL2    -0.180000       12.0110           0
      7318 MEMB     63       OSM      H9S      HAL2     0.900000E-01   1.00800           0
      7319 MEMB     63       OSM      H9T      HAL2     0.900000E-01   1.00800           0
      7320 MEMB     63       OSM      C10S     CTL2    -0.180000       12.0110           0
      7321 MEMB     63       OSM      H10S     HAL2     0.900000E-01   1.00800           0
      7322 MEMB     63       OSM      H10T     HAL2     0.900000E-01   1.00800           0
      7323 MEMB     63       OSM      C11S     CTL2    -0.180000       12.0110           0
      7324 MEMB     63       OSM      H11S     HAL2     0.900000E-01   1.00800           0
      7325 MEMB     63       OSM      H11T     HAL2     0.900000E-01   1.00800           0
      7326 MEMB     63       OSM      C12S     CTL2    -0.180000       12.0110           0
      7327 MEMB     63       OSM      H12S     HAL2     0.900000E-01   1.00800           0
      7328 MEMB     63       OSM      H12T     HAL2     0.900000E-01   1.00800           0
      7329 MEMB     63       OSM      C13S     CTL2    -0.180000       12.0110           0
      7330 MEMB     63       OSM      H13S     HAL2     0.900000E-01   1.00800           0
      7331 MEMB     63       OSM      H13T     HAL2     0.900000E-01   1.00800           0
      7332 MEMB     63       OSM      C14S     CTL2    -0.180000       12.0110           0
      7333 MEMB     63       OSM      H14S     HAL2     0.900000E-01   1.00800           0
      7334 MEMB     63       OSM      H14T     HAL2     0.900000E-01   1.00800           0
      7335 MEMB     63       OSM      C15S     CTL2    -0.180000       12.0110           0
      7336 MEMB     63       OSM      H15S     HAL2     0.900000E-01   1.00800           0
      7337 MEMB     63       OSM      H15T     HAL2     0.900000E-01   1.00800           0
      7338 MEMB     63       OSM      C16S     CTL2    -0.180000       12.0110           0
      7339 MEMB     63       OSM      H16S     HAL2     0.900000E-01   1.00800           0
      7340 MEMB     63       OSM      H16T     HAL2     0.900000E-01   1.00800           0
      7341 MEMB     63       OSM      C17S     CTL2    -0.180000       12.0110           0
      7342 MEMB     63       OSM      H17S     HAL2     0.900000E-01   1.00800           0
      7343 MEMB     63       OSM      H17T     HAL2     0.900000E-01   1.00800           0
      7344 MEMB     63       OSM      C18S     CTL3    -0.270000       12.0110           0
      7345 MEMB     63       OSM      H18S     HAL3     0.900000E-01   1.00800           0
      7346 MEMB     63       OSM      H18T     HAL3     0.900000E-01   1.00800           0
      7347 MEMB     63       OSM      H18U     HAL3     0.900000E-01   1.00800           0
      7348 MEMB     63       OSM      C1F      C        0.550000       12.0110           0
      7349 MEMB     63       OSM      OF       O       -0.600000       15.9994           0
      7350 MEMB     63       OSM      C2F      CTL2    -0.700000E-01   12.0110           0
      7351 MEMB     63       OSM      H2F      HAL2     0.600000E-01   1.00800           0
      7352 MEMB     63       OSM      H2G      HAL2     0.600000E-01   1.00800           0
      7353 MEMB     63       OSM      C3F      CTL2    -0.180000       12.0110           0
      7354 MEMB     63       OSM      H3F      HAL2     0.900000E-01   1.00800           0
      7355 MEMB     63       OSM      H3G      HAL2     0.900000E-01   1.00800           0
      7356 MEMB     63       OSM      C4F      CTL2    -0.180000       12.0110           0
      7357 MEMB     63       OSM      H4F      HAL2     0.900000E-01   1.00800           0
      7358 MEMB     63       OSM      H4G      HAL2     0.900000E-01   1.00800           0
      7359 MEMB     63       OSM      C5F      CTL2    -0.180000       12.0110           0
      7360 MEMB     63       OSM      H5F      HAL2     0.900000E-01   1.00800           0
      7361 MEMB     63       OSM      H5G      HAL2     0.900000E-01   1.00800           0
      7362 MEMB     63       OSM      C6F      CTL2    -0.180000       12.0110           0
      7363 MEMB     63       OSM      H6F      HAL2     0.900000E-01   1.00800           0
      7364 MEMB     63       OSM      H6G      HAL2     0.900000E-01   1.00800           0
      7365 MEMB     63       OSM      C7F      CTL2    -0.180000       12.0110           0
      7366 MEMB     63       OSM      H7F      HAL2     0.900000E-01   1.00800           0
      7367 MEMB     63       OSM      H7G      HAL2     0.900000E-01   1.00800           0
      7368 MEMB     63       OSM      C8F      CTL2    -0.180000       12.0110           0
      7369 MEMB     63       OSM      H8F      HAL2     0.900000E-01   1.00800           0
      7370 MEMB     63       OSM      H8G      HAL2     0.900000E-01   1.00800           0
      7371 MEMB     63       OSM      C9F      CEL1    -0.150000       12.0110           0
      7372 MEMB     63       OSM      H9F      HEL1     0.150000       1.00800           0
      7373 MEMB     63       OSM      C10F     CEL1    -0.150000       12.0110           0
      7374 MEMB     63       OSM      H10F     HEL1     0.150000       1.00800           0
      7375 MEMB     63       OSM      C11F     CTL2    -0.180000       12.0110           0
      7376 MEMB     63       OSM      H11F     HAL2     0.900000E-01   1.00800           0
      7377 MEMB     63       OSM      H11G     HAL2     0.900000E-01   1.00800           0
      7378 MEMB     63       OSM      C12F     CTL2    -0.180000       12.0110           0
      7379 MEMB     63       OSM      H12F     HAL2     0.900000E-01   1.00800           0
      7380 MEMB     63       OSM      H12G     HAL2     0.900000E-01   1.00800           0
      7381 MEMB     63       OSM      C13F     CTL2    -0.180000       12.0110           0
      7382 MEMB     63       OSM      H13F     HAL2     0.900000E-01   1.00800           0
      7383 MEMB     63       OSM      H13G     HAL2     0.900000E-01   1.00800           0
      7384 MEMB     63       OSM      C14F     CTL2    -0.180000       12.0110           0
      7385 MEMB     63       OSM      H14F     HAL2     0.900000E-01   1.00800           0
      7386 MEMB     63       OSM      H14G     HAL2     0.900000E-01   1.00800           0
      7387 MEMB     63       OSM      C15F     CTL2    -0.180000       12.0110           0
      7388 MEMB     63       OSM      H15F     HAL2     0.900000E-01   1.00800           0
      7389 MEMB     63       OSM      H15G     HAL2     0.900000E-01   1.00800           0
      7390 MEMB     63       OSM      C16F     CTL2    -0.180000       12.0110           0
      7391 MEMB     63       OSM      H16F     HAL2     0.900000E-01   1.00800           0
      7392 MEMB     63       OSM      H16G     HAL2     0.900000E-01   1.00800           0
      7393 MEMB     63       OSM      C17F     CTL2    -0.180000       12.0110           0
      7394 MEMB     63       OSM      H17F     HAL2     0.900000E-01   1.00800           0
      7395 MEMB     63       OSM      H17G     HAL2     0.900000E-01   1.00800           0
      7396 MEMB     63       OSM      C18F     CTL3    -0.270000       12.0110           0
      7397 MEMB     63       OSM      H18F     HAL3     0.900000E-01   1.00800           0
      7398 MEMB     63       OSM      H18G     HAL3     0.900000E-01   1.00800           0
      7399 MEMB     63       OSM      H18H     HAL3     0.900000E-01   1.00800           0
      7400 MEMB     64       CHL1     C3       CRL1     0.140000       12.0110           0
      7401 MEMB     64       CHL1     H3       HGA1     0.900000E-01   1.00800           0
      7402 MEMB     64       CHL1     O3       OHL     -0.660000       15.9994           0
      7403 MEMB     64       CHL1     H3'      HOL      0.430000       1.00800           0
      7404 MEMB     64       CHL1     C4       CRL2    -0.180000       12.0110           0
      7405 MEMB     64       CHL1     H4A      HGA2     0.900000E-01   1.00800           0
      7406 MEMB     64       CHL1     H4B      HGA2     0.900000E-01   1.00800           0
      7407 MEMB     64       CHL1     C5       CEL1      0.00000       12.0110           0
      7408 MEMB     64       CHL1     C6       CEL1    -0.150000       12.0110           0
      7409 MEMB     64       CHL1     H6       HEL1     0.150000       1.00800           0
      7410 MEMB     64       CHL1     C7       CRL2    -0.180000       12.0110           0
      7411 MEMB     64       CHL1     H7A      HGA2     0.900000E-01   1.00800           0
      7412 MEMB     64       CHL1     H7B      HGA2     0.900000E-01   1.00800           0
      7413 MEMB     64       CHL1     C8       CRL1    -0.900000E-01   12.0110           0
      7414 MEMB     64       CHL1     H8       HGA1     0.900000E-01   1.00800           0
      7415 MEMB     64       CHL1     C14      CRL1    -0.900000E-01   12.0110           0
      7416 MEMB     64       CHL1     H14      HGA1     0.900000E-01   1.00800           0
      7417 MEMB     64       CHL1     C15      CRL2    -0.180000       12.0110           0
      7418 MEMB     64       CHL1     H15A     HGA2     0.900000E-01   1.00800           0
      7419 MEMB     64       CHL1     H15B     HGA2     0.900000E-01   1.00800           0
      7420 MEMB     64       CHL1     C16      CRL2    -0.180000       12.0110           0
      7421 MEMB     64       CHL1     H16A     HGA2     0.900000E-01   1.00800           0
      7422 MEMB     64       CHL1     H16B     HGA2     0.900000E-01   1.00800           0
      7423 MEMB     64       CHL1     C17      CRL1    -0.900000E-01   12.0110           0
      7424 MEMB     64       CHL1     H17      HGA1     0.900000E-01   1.00800           0
      7425 MEMB     64       CHL1     C13      CRL1      0.00000       12.0110           0
      7426 MEMB     64       CHL1     C18      CTL3    -0.270000       12.0110           0
      7427 MEMB     64       CHL1     H18A     HAL3     0.900000E-01   1.00800           0
      7428 MEMB     64       CHL1     H18B     HAL3     0.900000E-01   1.00800           0
      7429 MEMB     64       CHL1     H18C     HAL3     0.900000E-01   1.00800           0
      7430 MEMB     64       CHL1     C12      CRL2    -0.180000       12.0110           0
      7431 MEMB     64       CHL1     H12A     HGA2     0.900000E-01   1.00800           0
      7432 MEMB     64       CHL1     H12B     HGA2     0.900000E-01   1.00800           0
      7433 MEMB     64       CHL1     C11      CRL2    -0.180000       12.0110           0
      7434 MEMB     64       CHL1     H11A     HGA2     0.900000E-01   1.00800           0
      7435 MEMB     64       CHL1     H11B     HGA2     0.900000E-01   1.00800           0
      7436 MEMB     64       CHL1     C9       CRL1    -0.900000E-01   12.0110           0
      7437 MEMB     64       CHL1     H9       HGA1     0.900000E-01   1.00800           0
      7438 MEMB     64       CHL1     C10      CRL1      0.00000       12.0110           0
      7439 MEMB     64       CHL1     C19      CTL3    -0.270000       12.0110           0
      7440 MEMB     64       CHL1     H19A     HAL3     0.900000E-01   1.00800           0
      7441 MEMB     64       CHL1     H19B     HAL3     0.900000E-01   1.00800           0
      7442 MEMB     64       CHL1     H19C     HAL3     0.900000E-01   1.00800           0
      7443 MEMB     64       CHL1     C1       CRL2    -0.180000       12.0110           0
      7444 MEMB     64       CHL1     H1A      HGA2     0.900000E-01   1.00800           0
      7445 MEMB     64       CHL1     H1B      HGA2     0.900000E-01   1.00800           0
      7446 MEMB     64       CHL1     C2       CRL2    -0.180000       12.0110           0
      7447 MEMB     64       CHL1     H2A      HGA2     0.900000E-01   1.00800           0
      7448 MEMB     64       CHL1     H2B      HGA2     0.900000E-01   1.00800           0
      7449 MEMB     64       CHL1     C20      CTL1    -0.900000E-01   12.0110           0
      7450 MEMB     64       CHL1     H20      HAL1     0.900000E-01   1.00800           0
      7451 MEMB     64       CHL1     C21      CTL3    -0.270000       12.0110           0
      7452 MEMB     64       CHL1     H21A     HAL3     0.900000E-01   1.00800           0
      7453 MEMB     64       CHL1     H21B     HAL3     0.900000E-01   1.00800           0
      7454 MEMB     64       CHL1     H21C     HAL3     0.900000E-01   1.00800           0
      7455 MEMB     64       CHL1     C22      CTL2    -0.180000       12.0110           0
      7456 MEMB     64       CHL1     H22A     HAL2     0.900000E-01   1.00800           0
      7457 MEMB     64       CHL1     H22B     HAL2     0.900000E-01   1.00800           0
      7458 MEMB     64       CHL1     C23      CTL2    -0.180000       12.0110           0
      7459 MEMB     64       CHL1     H23A     HAL2     0.900000E-01   1.00800           0
      7460 MEMB     64       CHL1     H23B     HAL2     0.900000E-01   1.00800           0
      7461 MEMB     64       CHL1     C24      CTL2    -0.180000       12.0110           0
      7462 MEMB     64       CHL1     H24A     HAL2     0.900000E-01   1.00800           0
      7463 MEMB     64       CHL1     H24B     HAL2     0.900000E-01   1.00800           0
      7464 MEMB     64       CHL1     C25      CTL1    -0.900000E-01   12.0110           0
      7465 MEMB     64       CHL1     H25      HAL1     0.900000E-01   1.00800           0
      7466 MEMB     64       CHL1     C26      CTL3    -0.270000       12.0110           0
      7467 MEMB     64       CHL1     H26A     HAL3     0.900000E-01   1.00800           0
      7468 MEMB     64       CHL1     H26B     HAL3     0.900000E-01   1.00800           0
      7469 MEMB     64       CHL1     H26C     HAL3     0.900000E-01   1.00800           0
      7470 MEMB     64       CHL1     C27      CTL3    -0.270000       12.0110           0
      7471 MEMB     64       CHL1     H27A     HAL3     0.900000E-01   1.00800           0
      7472 MEMB     64       CHL1     H27B     HAL3     0.900000E-01   1.00800           0
      7473 MEMB     64       CHL1     H27C     HAL3     0.900000E-01   1.00800           0
      7474 MEMB     65       CHL1     C3       CRL1     0.140000       12.0110           0
      7475 MEMB     65       CHL1     H3       HGA1     0.900000E-01   1.00800           0
      7476 MEMB     65       CHL1     O3       OHL     -0.660000       15.9994           0
      7477 MEMB     65       CHL1     H3'      HOL      0.430000       1.00800           0
      7478 MEMB     65       CHL1     C4       CRL2    -0.180000       12.0110           0
      7479 MEMB     65       CHL1     H4A      HGA2     0.900000E-01   1.00800           0
      7480 MEMB     65       CHL1     H4B      HGA2     0.900000E-01   1.00800           0
      7481 MEMB     65       CHL1     C5       CEL1      0.00000       12.0110           0
      7482 MEMB     65       CHL1     C6       CEL1    -0.150000       12.0110           0
      7483 MEMB     65       CHL1     H6       HEL1     0.150000       1.00800           0
      7484 MEMB     65       CHL1     C7       CRL2    -0.180000       12.0110           0
      7485 MEMB     65       CHL1     H7A      HGA2     0.900000E-01   1.00800           0
      7486 MEMB     65       CHL1     H7B      HGA2     0.900000E-01   1.00800           0
      7487 MEMB     65       CHL1     C8       CRL1    -0.900000E-01   12.0110           0
      7488 MEMB     65       CHL1     H8       HGA1     0.900000E-01   1.00800           0
      7489 MEMB     65       CHL1     C14      CRL1    -0.900000E-01   12.0110           0
      7490 MEMB     65       CHL1     H14      HGA1     0.900000E-01   1.00800           0
      7491 MEMB     65       CHL1     C15      CRL2    -0.180000       12.0110           0
      7492 MEMB     65       CHL1     H15A     HGA2     0.900000E-01   1.00800           0
      7493 MEMB     65       CHL1     H15B     HGA2     0.900000E-01   1.00800           0
      7494 MEMB     65       CHL1     C16      CRL2    -0.180000       12.0110           0
      7495 MEMB     65       CHL1     H16A     HGA2     0.900000E-01   1.00800           0
      7496 MEMB     65       CHL1     H16B     HGA2     0.900000E-01   1.00800           0
      7497 MEMB     65       CHL1     C17      CRL1    -0.900000E-01   12.0110           0
      7498 MEMB     65       CHL1     H17      HGA1     0.900000E-01   1.00800           0
      7499 MEMB     65       CHL1     C13      CRL1      0.00000       12.0110           0
      7500 MEMB     65       CHL1     C18      CTL3    -0.270000       12.0110           0
      7501 MEMB     65       CHL1     H18A     HAL3     0.900000E-01   1.00800           0
      7502 MEMB     65       CHL1     H18B     HAL3     0.900000E-01   1.00800           0
      7503 MEMB     65       CHL1     H18C     HAL3     0.900000E-01   1.00800           0
      7504 MEMB     65       CHL1     C12      CRL2    -0.180000       12.0110           0
      7505 MEMB     65       CHL1     H12A     HGA2     0.900000E-01   1.00800           0
      7506 MEMB     65       CHL1     H12B     HGA2     0.900000E-01   1.00800           0
      7507 MEMB     65       CHL1     C11      CRL2    -0.180000       12.0110           0
      7508 MEMB     65       CHL1     H11A     HGA2     0.900000E-01   1.00800           0
      7509 MEMB     65       CHL1     H11B     HGA2     0.900000E-01   1.00800           0
      7510 MEMB     65       CHL1     C9       CRL1    -0.900000E-01   12.0110           0
      7511 MEMB     65       CHL1     H9       HGA1     0.900000E-01   1.00800           0
      7512 MEMB     65       CHL1     C10      CRL1      0.00000       12.0110           0
      7513 MEMB     65       CHL1     C19      CTL3    -0.270000       12.0110           0
      7514 MEMB     65       CHL1     H19A     HAL3     0.900000E-01   1.00800           0
      7515 MEMB     65       CHL1     H19B     HAL3     0.900000E-01   1.00800           0
      7516 MEMB     65       CHL1     H19C     HAL3     0.900000E-01   1.00800           0
      7517 MEMB     65       CHL1     C1       CRL2    -0.180000       12.0110           0
      7518 MEMB     65       CHL1     H1A      HGA2     0.900000E-01   1.00800           0
      7519 MEMB     65       CHL1     H1B      HGA2     0.900000E-01   1.00800           0
      7520 MEMB     65       CHL1     C2       CRL2    -0.180000       12.0110           0
      7521 MEMB     65       CHL1     H2A      HGA2     0.900000E-01   1.00800           0
      7522 MEMB     65       CHL1     H2B      HGA2     0.900000E-01   1.00800           0
      7523 MEMB     65       CHL1     C20      CTL1    -0.900000E-01   12.0110           0
      7524 MEMB     65       CHL1     H20      HAL1     0.900000E-01   1.00800           0
      7525 MEMB     65       CHL1     C21      CTL3    -0.270000       12.0110           0
      7526 MEMB     65       CHL1     H21A     HAL3     0.900000E-01   1.00800           0
      7527 MEMB     65       CHL1     H21B     HAL3     0.900000E-01   1.00800           0
      7528 MEMB     65       CHL1     H21C     HAL3     0.900000E-01   1.00800           0
      7529 MEMB     65       CHL1     C22      CTL2    -0.180000       12.0110           0
      7530 MEMB     65       CHL1     H22A     HAL2     0.900000E-01   1.00800           0
      7531 MEMB     65       CHL1     H22B     HAL2     0.900000E-01   1.00800           0
      7532 MEMB     65       CHL1     C23      CTL2    -0.180000       12.0110           0
      7533 MEMB     65       CHL1     H23A     HAL2     0.900000E-01   1.00800           0
      7534 MEMB     65       CHL1     H23B     HAL2     0.900000E-01   1.00800           0
      7535 MEMB     65       CHL1     C24      CTL2    -0.180000       12.0110           0
      7536 MEMB     65       CHL1     H24A     HAL2     0.900000E-01   1.00800           0
      7537 MEMB     65       CHL1     H24B     HAL2     0.900000E-01   1.00800           0
      7538 MEMB     65       CHL1     C25      CTL1    -0.900000E-01   12.0110           0
      7539 MEMB     65       CHL1     H25      HAL1     0.900000E-01   1.00800           0
      7540 MEMB     65       CHL1     C26      CTL3    -0.270000       12.0110           0
      7541 MEMB     65       CHL1     H26A     HAL3     0.900000E-01   1.00800           0
      7542 MEMB     65       CHL1     H26B     HAL3     0.900000E-01   1.00800           0
      7543 MEMB     65       CHL1     H26C     HAL3     0.900000E-01   1.00800           0
      7544 MEMB     65       CHL1     C27      CTL3    -0.270000       12.0110           0
      7545 MEMB     65       CHL1     H27A     HAL3     0.900000E-01   1.00800           0
      7546 MEMB     65       CHL1     H27B     HAL3     0.900000E-01   1.00800           0
      7547 MEMB     65       CHL1     H27C     HAL3     0.900000E-01   1.00800           0
      7548 MEMB     66       CHL1     C3       CRL1     0.140000       12.0110           0
      7549 MEMB     66       CHL1     H3       HGA1     0.900000E-01   1.00800           0
      7550 MEMB     66       CHL1     O3       OHL     -0.660000       15.9994           0
      7551 MEMB     66       CHL1     H3'      HOL      0.430000       1.00800           0
      7552 MEMB     66       CHL1     C4       CRL2    -0.180000       12.0110           0
      7553 MEMB     66       CHL1     H4A      HGA2     0.900000E-01   1.00800           0
      7554 MEMB     66       CHL1     H4B      HGA2     0.900000E-01   1.00800           0
      7555 MEMB     66       CHL1     C5       CEL1      0.00000       12.0110           0
      7556 MEMB     66       CHL1     C6       CEL1    -0.150000       12.0110           0
      7557 MEMB     66       CHL1     H6       HEL1     0.150000       1.00800           0
      7558 MEMB     66       CHL1     C7       CRL2    -0.180000       12.0110           0
      7559 MEMB     66       CHL1     H7A      HGA2     0.900000E-01   1.00800           0
      7560 MEMB     66       CHL1     H7B      HGA2     0.900000E-01   1.00800           0
      7561 MEMB     66       CHL1     C8       CRL1    -0.900000E-01   12.0110           0
      7562 MEMB     66       CHL1     H8       HGA1     0.900000E-01   1.00800           0
      7563 MEMB     66       CHL1     C14      CRL1    -0.900000E-01   12.0110           0
      7564 MEMB     66       CHL1     H14      HGA1     0.900000E-01   1.00800           0
      7565 MEMB     66       CHL1     C15      CRL2    -0.180000       12.0110           0
      7566 MEMB     66       CHL1     H15A     HGA2     0.900000E-01   1.00800           0
      7567 MEMB     66       CHL1     H15B     HGA2     0.900000E-01   1.00800           0
      7568 MEMB     66       CHL1     C16      CRL2    -0.180000       12.0110           0
      7569 MEMB     66       CHL1     H16A     HGA2     0.900000E-01   1.00800           0
      7570 MEMB     66       CHL1     H16B     HGA2     0.900000E-01   1.00800           0
      7571 MEMB     66       CHL1     C17      CRL1    -0.900000E-01   12.0110           0
      7572 MEMB     66       CHL1     H17      HGA1     0.900000E-01   1.00800           0
      7573 MEMB     66       CHL1     C13      CRL1      0.00000       12.0110           0
      7574 MEMB     66       CHL1     C18      CTL3    -0.270000       12.0110           0
      7575 MEMB     66       CHL1     H18A     HAL3     0.900000E-01   1.00800           0
      7576 MEMB     66       CHL1     H18B     HAL3     0.900000E-01   1.00800           0
      7577 MEMB     66       CHL1     H18C     HAL3     0.900000E-01   1.00800           0
      7578 MEMB     66       CHL1     C12      CRL2    -0.180000       12.0110           0
      7579 MEMB     66       CHL1     H12A     HGA2     0.900000E-01   1.00800           0
      7580 MEMB     66       CHL1     H12B     HGA2     0.900000E-01   1.00800           0
      7581 MEMB     66       CHL1     C11      CRL2    -0.180000       12.0110           0
      7582 MEMB     66       CHL1     H11A     HGA2     0.900000E-01   1.00800           0
      7583 MEMB     66       CHL1     H11B     HGA2     0.900000E-01   1.00800           0
      7584 MEMB     66       CHL1     C9       CRL1    -0.900000E-01   12.0110           0
      7585 MEMB     66       CHL1     H9       HGA1     0.900000E-01   1.00800           0
      7586 MEMB     66       CHL1     C10      CRL1      0.00000       12.0110           0
      7587 MEMB     66       CHL1     C19      CTL3    -0.270000       12.0110           0
      7588 MEMB     66       CHL1     H19A     HAL3     0.900000E-01   1.00800           0
      7589 MEMB     66       CHL1     H19B     HAL3     0.900000E-01   1.00800           0
      7590 MEMB     66       CHL1     H19C     HAL3     0.900000E-01   1.00800           0
      7591 MEMB     66       CHL1     C1       CRL2    -0.180000       12.0110           0
      7592 MEMB     66       CHL1     H1A      HGA2     0.900000E-01   1.00800           0
      7593 MEMB     66       CHL1     H1B      HGA2     0.900000E-01   1.00800           0
      7594 MEMB     66       CHL1     C2       CRL2    -0.180000       12.0110           0
      7595 MEMB     66       CHL1     H2A      HGA2     0.900000E-01   1.00800           0
      7596 MEMB     66       CHL1     H2B      HGA2     0.900000E-01   1.00800           0
      7597 MEMB     66       CHL1     C20      CTL1    -0.900000E-01   12.0110           0
      7598 MEMB     66       CHL1     H20      HAL1     0.900000E-01   1.00800           0
      7599 MEMB     66       CHL1     C21      CTL3    -0.270000       12.0110           0
      7600 MEMB     66       CHL1     H21A     HAL3     0.900000E-01   1.00800           0
      7601 MEMB     66       CHL1     H21B     HAL3     0.900000E-01   1.00800           0
      7602 MEMB     66       CHL1     H21C     HAL3     0.900000E-01   1.00800           0
      7603 MEMB     66       CHL1     C22      CTL2    -0.180000       12.0110           0
      7604 MEMB     66       CHL1     H22A     HAL2     0.900000E-01   1.00800           0
      7605 MEMB     66       CHL1     H22B     HAL2     0.900000E-01   1.00800           0
      7606 MEMB     66       CHL1     C23      CTL2    -0.180000       12.0110           0
      7607 MEMB     66       CHL1     H23A     HAL2     0.900000E-01   1.00800           0
      7608 MEMB     66       CHL1     H23B     HAL2     0.900000E-01   1.00800           0
      7609 MEMB     66       CHL1     C24      CTL2    -0.180000       12.0110           0
      7610 MEMB     66       CHL1     H24A     HAL2     0.900000E-01   1.00800           0
      7611 MEMB     66       CHL1     H24B     HAL2     0.900000E-01   1.00800           0
      7612 MEMB     66       CHL1     C25      CTL1    -0.900000E-01   12.0110           0
      7613 MEMB     66       CHL1     H25      HAL1     0.900000E-01   1.00800           0
      7614 MEMB     66       CHL1     C26      CTL3    -0.270000       12.0110           0
      7615 MEMB     66       CHL1     H26A     HAL3     0.900000E-01   1.00800           0
      7616 MEMB     66       CHL1     H26B     HAL3     0.900000E-01   1.00800           0
      7617 MEMB     66       CHL1     H26C     HAL3     0.900000E-01   1.00800           0
      7618 MEMB     66       CHL1     C27      CTL3    -0.270000       12.0110           0
      7619 MEMB     66       CHL1     H27A     HAL3     0.900000E-01   1.00800           0
      7620 MEMB     66       CHL1     H27B     HAL3     0.900000E-01   1.00800           0
      7621 MEMB     66       CHL1     H27C     HAL3     0.900000E-01   1.00800           0
      7622 MEMB     67       SAPE     N        NH3L    -0.300000       14.0070           0
      7623 MEMB     67       SAPE     HN1      HCL      0.330000       1.00800           0
      7624 MEMB     67       SAPE     HN2      HCL      0.330000       1.00800           0
      7625 MEMB     67       SAPE     HN3      HCL      0.330000       1.00800           0
      7626 MEMB     67       SAPE     C12      CTL2     0.130000       12.0110           0
      7627 MEMB     67       SAPE     H12A     HAL2     0.900000E-01   1.00800           0
      7628 MEMB     67       SAPE     H12B     HAL2     0.900000E-01   1.00800           0
      7629 MEMB     67       SAPE     C11      CTL2    -0.800000E-01   12.0110           0
      7630 MEMB     67       SAPE     H11A     HAL2     0.900000E-01   1.00800           0
      7631 MEMB     67       SAPE     H11B     HAL2     0.900000E-01   1.00800           0
      7632 MEMB     67       SAPE     P        PL        1.50000       30.9740           0
      7633 MEMB     67       SAPE     O13      O2L     -0.780000       15.9994           0
      7634 MEMB     67       SAPE     O14      O2L     -0.780000       15.9994           0
      7635 MEMB     67       SAPE     O12      OSLP    -0.570000       15.9994           0
      7636 MEMB     67       SAPE     O11      OSLP    -0.570000       15.9994           0
      7637 MEMB     67       SAPE     C1       CTL2    -0.800000E-01   12.0110           0
      7638 MEMB     67       SAPE     HA       HAL2     0.900000E-01   1.00800           0
      7639 MEMB     67       SAPE     HB       HAL2     0.900000E-01   1.00800           0
      7640 MEMB     67       SAPE     C2       CTL1     0.170000       12.0110           0
      7641 MEMB     67       SAPE     HS       HAL1     0.900000E-01   1.00800           0
      7642 MEMB     67       SAPE     O21      OSL     -0.490000       15.9994           0
      7643 MEMB     67       SAPE     C21      CL       0.900000       12.0110           0
      7644 MEMB     67       SAPE     O22      OBL     -0.630000       15.9994           0
      7645 MEMB     67       SAPE     C22      CTL2    -0.220000       12.0110           0
      7646 MEMB     67       SAPE     H2R      HAL2     0.900000E-01   1.00800           0
      7647 MEMB     67       SAPE     H2S      HAL2     0.900000E-01   1.00800           0
      7648 MEMB     67       SAPE     C3       CTL2     0.800000E-01   12.0110           0
      7649 MEMB     67       SAPE     HX       HAL2     0.900000E-01   1.00800           0
      7650 MEMB     67       SAPE     HY       HAL2     0.900000E-01   1.00800           0
      7651 MEMB     67       SAPE     O31      OSL     -0.490000       15.9994           0
      7652 MEMB     67       SAPE     C31      CL       0.900000       12.0110           0
      7653 MEMB     67       SAPE     O32      OBL     -0.630000       15.9994           0
      7654 MEMB     67       SAPE     C32      CTL2    -0.220000       12.0110           0
      7655 MEMB     67       SAPE     H2X      HAL2     0.900000E-01   1.00800           0
      7656 MEMB     67       SAPE     H2Y      HAL2     0.900000E-01   1.00800           0
      7657 MEMB     67       SAPE     C23      CTL2    -0.180000       12.0110           0
      7658 MEMB     67       SAPE     H3R      HAL2     0.900000E-01   1.00800           0
      7659 MEMB     67       SAPE     H3S      HAL2     0.900000E-01   1.00800           0
      7660 MEMB     67       SAPE     C24      CTL2    -0.180000       12.0110           0
      7661 MEMB     67       SAPE     H4R      HAL2     0.900000E-01   1.00800           0
      7662 MEMB     67       SAPE     H4S      HAL2     0.900000E-01   1.00800           0
      7663 MEMB     67       SAPE     C25      CEL1    -0.150000       12.0110           0
      7664 MEMB     67       SAPE     H5R      HEL1     0.150000       1.00800           0
      7665 MEMB     67       SAPE     C26      CEL1    -0.150000       12.0110           0
      7666 MEMB     67       SAPE     H6R      HEL1     0.150000       1.00800           0
      7667 MEMB     67       SAPE     C27      CTL2    -0.180000       12.0110           0
      7668 MEMB     67       SAPE     H7R      HAL2     0.900000E-01   1.00800           0
      7669 MEMB     67       SAPE     H7S      HAL2     0.900000E-01   1.00800           0
      7670 MEMB     67       SAPE     C28      CEL1    -0.150000       12.0110           0
      7671 MEMB     67       SAPE     H8R      HEL1     0.150000       1.00800           0
      7672 MEMB     67       SAPE     C29      CEL1    -0.150000       12.0110           0
      7673 MEMB     67       SAPE     H9R      HEL1     0.150000       1.00800           0
      7674 MEMB     67       SAPE     C210     CTL2    -0.180000       12.0110           0
      7675 MEMB     67       SAPE     H10R     HAL2     0.900000E-01   1.00800           0
      7676 MEMB     67       SAPE     H10S     HAL2     0.900000E-01   1.00800           0
      7677 MEMB     67       SAPE     C211     CEL1    -0.150000       12.0110           0
      7678 MEMB     67       SAPE     H11R     HEL1     0.150000       1.00800           0
      7679 MEMB     67       SAPE     C212     CEL1    -0.150000       12.0110           0
      7680 MEMB     67       SAPE     H12R     HEL1     0.150000       1.00800           0
      7681 MEMB     67       SAPE     C213     CTL2    -0.180000       12.0110           0
      7682 MEMB     67       SAPE     H13R     HAL2     0.900000E-01   1.00800           0
      7683 MEMB     67       SAPE     H13S     HAL2     0.900000E-01   1.00800           0
      7684 MEMB     67       SAPE     C214     CEL1    -0.150000       12.0110           0
      7685 MEMB     67       SAPE     H14R     HEL1     0.150000       1.00800           0
      7686 MEMB     67       SAPE     C215     CEL1    -0.150000       12.0110           0
      7687 MEMB     67       SAPE     H15R     HEL1     0.150000       1.00800           0
      7688 MEMB     67       SAPE     C216     CTL2    -0.180000       12.0110           0
      7689 MEMB     67       SAPE     H16R     HAL2     0.900000E-01   1.00800           0
      7690 MEMB     67       SAPE     H16S     HAL2     0.900000E-01   1.00800           0
      7691 MEMB     67       SAPE     C217     CTL2    -0.180000       12.0110           0
      7692 MEMB     67       SAPE     H17R     HAL2     0.900000E-01   1.00800           0
      7693 MEMB     67       SAPE     H17S     HAL2     0.900000E-01   1.00800           0
      7694 MEMB     67       SAPE     C218     CTL2    -0.180000       12.0110           0
      7695 MEMB     67       SAPE     H18R     HAL2     0.900000E-01   1.00800           0
      7696 MEMB     67       SAPE     H18S     HAL2     0.900000E-01   1.00800           0
      7697 MEMB     67       SAPE     C219     CTL2    -0.180000       12.0110           0
      7698 MEMB     67       SAPE     H19R     HAL2     0.900000E-01   1.00800           0
      7699 MEMB     67       SAPE     H19S     HAL2     0.900000E-01   1.00800           0
      7700 MEMB     67       SAPE     C220     CTL3    -0.270000       12.0110           0
      7701 MEMB     67       SAPE     H20R     HAL3     0.900000E-01   1.00800           0
      7702 MEMB     67       SAPE     H20S     HAL3     0.900000E-01   1.00800           0
      7703 MEMB     67       SAPE     H20T     HAL3     0.900000E-01   1.00800           0
      7704 MEMB     67       SAPE     C33      CTL2    -0.180000       12.0110           0
      7705 MEMB     67       SAPE     H3X      HAL2     0.900000E-01   1.00800           0
      7706 MEMB     67       SAPE     H3Y      HAL2     0.900000E-01   1.00800           0
      7707 MEMB     67       SAPE     C34      CTL2    -0.180000       12.0110           0
      7708 MEMB     67       SAPE     H4X      HAL2     0.900000E-01   1.00800           0
      7709 MEMB     67       SAPE     H4Y      HAL2     0.900000E-01   1.00800           0
      7710 MEMB     67       SAPE     C35      CTL2    -0.180000       12.0110           0
      7711 MEMB     67       SAPE     H5X      HAL2     0.900000E-01   1.00800           0
      7712 MEMB     67       SAPE     H5Y      HAL2     0.900000E-01   1.00800           0
      7713 MEMB     67       SAPE     C36      CTL2    -0.180000       12.0110           0
      7714 MEMB     67       SAPE     H6X      HAL2     0.900000E-01   1.00800           0
      7715 MEMB     67       SAPE     H6Y      HAL2     0.900000E-01   1.00800           0
      7716 MEMB     67       SAPE     C37      CTL2    -0.180000       12.0110           0
      7717 MEMB     67       SAPE     H7X      HAL2     0.900000E-01   1.00800           0
      7718 MEMB     67       SAPE     H7Y      HAL2     0.900000E-01   1.00800           0
      7719 MEMB     67       SAPE     C38      CTL2    -0.180000       12.0110           0
      7720 MEMB     67       SAPE     H8X      HAL2     0.900000E-01   1.00800           0
      7721 MEMB     67       SAPE     H8Y      HAL2     0.900000E-01   1.00800           0
      7722 MEMB     67       SAPE     C39      CTL2    -0.180000       12.0110           0
      7723 MEMB     67       SAPE     H9X      HAL2     0.900000E-01   1.00800           0
      7724 MEMB     67       SAPE     H9Y      HAL2     0.900000E-01   1.00800           0
      7725 MEMB     67       SAPE     C310     CTL2    -0.180000       12.0110           0
      7726 MEMB     67       SAPE     H10X     HAL2     0.900000E-01   1.00800           0
      7727 MEMB     67       SAPE     H10Y     HAL2     0.900000E-01   1.00800           0
      7728 MEMB     67       SAPE     C311     CTL2    -0.180000       12.0110           0
      7729 MEMB     67       SAPE     H11X     HAL2     0.900000E-01   1.00800           0
      7730 MEMB     67       SAPE     H11Y     HAL2     0.900000E-01   1.00800           0
      7731 MEMB     67       SAPE     C312     CTL2    -0.180000       12.0110           0
      7732 MEMB     67       SAPE     H12X     HAL2     0.900000E-01   1.00800           0
      7733 MEMB     67       SAPE     H12Y     HAL2     0.900000E-01   1.00800           0
      7734 MEMB     67       SAPE     C313     CTL2    -0.180000       12.0110           0
      7735 MEMB     67       SAPE     H13X     HAL2     0.900000E-01   1.00800           0
      7736 MEMB     67       SAPE     H13Y     HAL2     0.900000E-01   1.00800           0
      7737 MEMB     67       SAPE     C314     CTL2    -0.180000       12.0110           0
      7738 MEMB     67       SAPE     H14X     HAL2     0.900000E-01   1.00800           0
      7739 MEMB     67       SAPE     H14Y     HAL2     0.900000E-01   1.00800           0
      7740 MEMB     67       SAPE     C315     CTL2    -0.180000       12.0110           0
      7741 MEMB     67       SAPE     H15X     HAL2     0.900000E-01   1.00800           0
      7742 MEMB     67       SAPE     H15Y     HAL2     0.900000E-01   1.00800           0
      7743 MEMB     67       SAPE     C316     CTL2    -0.180000       12.0110           0
      7744 MEMB     67       SAPE     H16X     HAL2     0.900000E-01   1.00800           0
      7745 MEMB     67       SAPE     H16Y     HAL2     0.900000E-01   1.00800           0
      7746 MEMB     67       SAPE     C317     CTL2    -0.180000       12.0110           0
      7747 MEMB     67       SAPE     H17X     HAL2     0.900000E-01   1.00800           0
      7748 MEMB     67       SAPE     H17Y     HAL2     0.900000E-01   1.00800           0
      7749 MEMB     67       SAPE     C318     CTL3    -0.270000       12.0110           0
      7750 MEMB     67       SAPE     H18X     HAL3     0.900000E-01   1.00800           0
      7751 MEMB     67       SAPE     H18Y     HAL3     0.900000E-01   1.00800           0
      7752 MEMB     67       SAPE     H18Z     HAL3     0.900000E-01   1.00800           0
      7753 MEMB     68       SOPE     N        NH3L    -0.300000       14.0070           0
      7754 MEMB     68       SOPE     HN1      HCL      0.330000       1.00800           0
      7755 MEMB     68       SOPE     HN2      HCL      0.330000       1.00800           0
      7756 MEMB     68       SOPE     HN3      HCL      0.330000       1.00800           0
      7757 MEMB     68       SOPE     C12      CTL2     0.130000       12.0110           0
      7758 MEMB     68       SOPE     H12A     HAL2     0.900000E-01   1.00800           0
      7759 MEMB     68       SOPE     H12B     HAL2     0.900000E-01   1.00800           0
      7760 MEMB     68       SOPE     C11      CTL2    -0.800000E-01   12.0110           0
      7761 MEMB     68       SOPE     H11A     HAL2     0.900000E-01   1.00800           0
      7762 MEMB     68       SOPE     H11B     HAL2     0.900000E-01   1.00800           0
      7763 MEMB     68       SOPE     P        PL        1.50000       30.9740           0
      7764 MEMB     68       SOPE     O13      O2L     -0.780000       15.9994           0
      7765 MEMB     68       SOPE     O14      O2L     -0.780000       15.9994           0
      7766 MEMB     68       SOPE     O12      OSLP    -0.570000       15.9994           0
      7767 MEMB     68       SOPE     O11      OSLP    -0.570000       15.9994           0
      7768 MEMB     68       SOPE     C1       CTL2    -0.800000E-01   12.0110           0
      7769 MEMB     68       SOPE     HA       HAL2     0.900000E-01   1.00800           0
      7770 MEMB     68       SOPE     HB       HAL2     0.900000E-01   1.00800           0
      7771 MEMB     68       SOPE     C2       CTL1     0.170000       12.0110           0
      7772 MEMB     68       SOPE     HS       HAL1     0.900000E-01   1.00800           0
      7773 MEMB     68       SOPE     O21      OSL     -0.490000       15.9994           0
      7774 MEMB     68       SOPE     C21      CL       0.900000       12.0110           0
      7775 MEMB     68       SOPE     O22      OBL     -0.630000       15.9994           0
      7776 MEMB     68       SOPE     C22      CTL2    -0.220000       12.0110           0
      7777 MEMB     68       SOPE     H2R      HAL2     0.900000E-01   1.00800           0
      7778 MEMB     68       SOPE     H2S      HAL2     0.900000E-01   1.00800           0
      7779 MEMB     68       SOPE     C3       CTL2     0.800000E-01   12.0110           0
      7780 MEMB     68       SOPE     HX       HAL2     0.900000E-01   1.00800           0
      7781 MEMB     68       SOPE     HY       HAL2     0.900000E-01   1.00800           0
      7782 MEMB     68       SOPE     O31      OSL     -0.490000       15.9994           0
      7783 MEMB     68       SOPE     C31      CL       0.900000       12.0110           0
      7784 MEMB     68       SOPE     O32      OBL     -0.630000       15.9994           0
      7785 MEMB     68       SOPE     C32      CTL2    -0.220000       12.0110           0
      7786 MEMB     68       SOPE     H2X      HAL2     0.900000E-01   1.00800           0
      7787 MEMB     68       SOPE     H2Y      HAL2     0.900000E-01   1.00800           0
      7788 MEMB     68       SOPE     C23      CTL2    -0.180000       12.0110           0
      7789 MEMB     68       SOPE     H3R      HAL2     0.900000E-01   1.00800           0
      7790 MEMB     68       SOPE     H3S      HAL2     0.900000E-01   1.00800           0
      7791 MEMB     68       SOPE     C24      CTL2    -0.180000       12.0110           0
      7792 MEMB     68       SOPE     H4R      HAL2     0.900000E-01   1.00800           0
      7793 MEMB     68       SOPE     H4S      HAL2     0.900000E-01   1.00800           0
      7794 MEMB     68       SOPE     C25      CTL2    -0.180000       12.0110           0
      7795 MEMB     68       SOPE     H5R      HAL2     0.900000E-01   1.00800           0
      7796 MEMB     68       SOPE     H5S      HAL2     0.900000E-01   1.00800           0
      7797 MEMB     68       SOPE     C26      CTL2    -0.180000       12.0110           0
      7798 MEMB     68       SOPE     H6R      HAL2     0.900000E-01   1.00800           0
      7799 MEMB     68       SOPE     H6S      HAL2     0.900000E-01   1.00800           0
      7800 MEMB     68       SOPE     C27      CTL2    -0.180000       12.0110           0
      7801 MEMB     68       SOPE     H7R      HAL2     0.900000E-01   1.00800           0
      7802 MEMB     68       SOPE     H7S      HAL2     0.900000E-01   1.00800           0
      7803 MEMB     68       SOPE     C28      CTL2    -0.180000       12.0110           0
      7804 MEMB     68       SOPE     H8R      HAL2     0.900000E-01   1.00800           0
      7805 MEMB     68       SOPE     H8S      HAL2     0.900000E-01   1.00800           0
      7806 MEMB     68       SOPE     C29      CEL1    -0.150000       12.0110           0
      7807 MEMB     68       SOPE     H91      HEL1     0.150000       1.00800           0
      7808 MEMB     68       SOPE     C210     CEL1    -0.150000       12.0110           0
      7809 MEMB     68       SOPE     H101     HEL1     0.150000       1.00800           0
      7810 MEMB     68       SOPE     C211     CTL2    -0.180000       12.0110           0
      7811 MEMB     68       SOPE     H11R     HAL2     0.900000E-01   1.00800           0
      7812 MEMB     68       SOPE     H11S     HAL2     0.900000E-01   1.00800           0
      7813 MEMB     68       SOPE     C212     CTL2    -0.180000       12.0110           0
      7814 MEMB     68       SOPE     H12R     HAL2     0.900000E-01   1.00800           0
      7815 MEMB     68       SOPE     H12S     HAL2     0.900000E-01   1.00800           0
      7816 MEMB     68       SOPE     C213     CTL2    -0.180000       12.0110           0
      7817 MEMB     68       SOPE     H13R     HAL2     0.900000E-01   1.00800           0
      7818 MEMB     68       SOPE     H13S     HAL2     0.900000E-01   1.00800           0
      7819 MEMB     68       SOPE     C214     CTL2    -0.180000       12.0110           0
      7820 MEMB     68       SOPE     H14R     HAL2     0.900000E-01   1.00800           0
      7821 MEMB     68       SOPE     H14S     HAL2     0.900000E-01   1.00800           0
      7822 MEMB     68       SOPE     C215     CTL2    -0.180000       12.0110           0
      7823 MEMB     68       SOPE     H15R     HAL2     0.900000E-01   1.00800           0
      7824 MEMB     68       SOPE     H15S     HAL2     0.900000E-01   1.00800           0
      7825 MEMB     68       SOPE     C216     CTL2    -0.180000       12.0110           0
      7826 MEMB     68       SOPE     H16R     HAL2     0.900000E-01   1.00800           0
      7827 MEMB     68       SOPE     H16S     HAL2     0.900000E-01   1.00800           0
      7828 MEMB     68       SOPE     C217     CTL2    -0.180000       12.0110           0
      7829 MEMB     68       SOPE     H17R     HAL2     0.900000E-01   1.00800           0
      7830 MEMB     68       SOPE     H17S     HAL2     0.900000E-01   1.00800           0
      7831 MEMB     68       SOPE     C218     CTL3    -0.270000       12.0110           0
      7832 MEMB     68       SOPE     H18R     HAL3     0.900000E-01   1.00800           0
      7833 MEMB     68       SOPE     H18S     HAL3     0.900000E-01   1.00800           0
      7834 MEMB     68       SOPE     H18T     HAL3     0.900000E-01   1.00800           0
      7835 MEMB     68       SOPE     C33      CTL2    -0.180000       12.0110           0
      7836 MEMB     68       SOPE     H3X      HAL2     0.900000E-01   1.00800           0
      7837 MEMB     68       SOPE     H3Y      HAL2     0.900000E-01   1.00800           0
      7838 MEMB     68       SOPE     C34      CTL2    -0.180000       12.0110           0
      7839 MEMB     68       SOPE     H4X      HAL2     0.900000E-01   1.00800           0
      7840 MEMB     68       SOPE     H4Y      HAL2     0.900000E-01   1.00800           0
      7841 MEMB     68       SOPE     C35      CTL2    -0.180000       12.0110           0
      7842 MEMB     68       SOPE     H5X      HAL2     0.900000E-01   1.00800           0
      7843 MEMB     68       SOPE     H5Y      HAL2     0.900000E-01   1.00800           0
      7844 MEMB     68       SOPE     C36      CTL2    -0.180000       12.0110           0
      7845 MEMB     68       SOPE     H6X      HAL2     0.900000E-01   1.00800           0
      7846 MEMB     68       SOPE     H6Y      HAL2     0.900000E-01   1.00800           0
      7847 MEMB     68       SOPE     C37      CTL2    -0.180000       12.0110           0
      7848 MEMB     68       SOPE     H7X      HAL2     0.900000E-01   1.00800           0
      7849 MEMB     68       SOPE     H7Y      HAL2     0.900000E-01   1.00800           0
      7850 MEMB     68       SOPE     C38      CTL2    -0.180000       12.0110           0
      7851 MEMB     68       SOPE     H8X      HAL2     0.900000E-01   1.00800           0
      7852 MEMB     68       SOPE     H8Y      HAL2     0.900000E-01   1.00800           0
      7853 MEMB     68       SOPE     C39      CTL2    -0.180000       12.0110           0
      7854 MEMB     68       SOPE     H9X      HAL2     0.900000E-01   1.00800           0
      7855 MEMB     68       SOPE     H9Y      HAL2     0.900000E-01   1.00800           0
      7856 MEMB     68       SOPE     C310     CTL2    -0.180000       12.0110           0
      7857 MEMB     68       SOPE     H10X     HAL2     0.900000E-01   1.00800           0
      7858 MEMB     68       SOPE     H10Y     HAL2     0.900000E-01   1.00800           0
      7859 MEMB     68       SOPE     C311     CTL2    -0.180000       12.0110           0
      7860 MEMB     68       SOPE     H11X     HAL2     0.900000E-01   1.00800           0
      7861 MEMB     68       SOPE     H11Y     HAL2     0.900000E-01   1.00800           0
      7862 MEMB     68       SOPE     C312     CTL2    -0.180000       12.0110           0
      7863 MEMB     68       SOPE     H12X     HAL2     0.900000E-01   1.00800           0
      7864 MEMB     68       SOPE     H12Y     HAL2     0.900000E-01   1.00800           0
      7865 MEMB     68       SOPE     C313     CTL2    -0.180000       12.0110           0
      7866 MEMB     68       SOPE     H13X     HAL2     0.900000E-01   1.00800           0
      7867 MEMB     68       SOPE     H13Y     HAL2     0.900000E-01   1.00800           0
      7868 MEMB     68       SOPE     C314     CTL2    -0.180000       12.0110           0
      7869 MEMB     68       SOPE     H14X     HAL2     0.900000E-01   1.00800           0
      7870 MEMB     68       SOPE     H14Y     HAL2     0.900000E-01   1.00800           0
      7871 MEMB     68       SOPE     C315     CTL2    -0.180000       12.0110           0
      7872 MEMB     68       SOPE     H15X     HAL2     0.900000E-01   1.00800           0
      7873 MEMB     68       SOPE     H15Y     HAL2     0.900000E-01   1.00800           0
      7874 MEMB     68       SOPE     C316     CTL2    -0.180000       12.0110           0
      7875 MEMB     68       SOPE     H16X     HAL2     0.900000E-01   1.00800           0
      7876 MEMB     68       SOPE     H16Y     HAL2     0.900000E-01   1.00800           0
      7877 MEMB     68       SOPE     C317     CTL2    -0.180000       12.0110           0
      7878 MEMB     68       SOPE     H17X     HAL2     0.900000E-01   1.00800           0
      7879 MEMB     68       SOPE     H17Y     HAL2     0.900000E-01   1.00800           0
      7880 MEMB     68       SOPE     C318     CTL3    -0.270000       12.0110           0
      7881 MEMB     68       SOPE     H18X     HAL3     0.900000E-01   1.00800           0
      7882 MEMB     68       SOPE     H18Y     HAL3     0.900000E-01   1.00800           0
      7883 MEMB     68       SOPE     H18Z     HAL3     0.900000E-01   1.00800           0
      7884 MEMB     69       OSM      N        NTL     -0.600000       14.0070           0
      7885 MEMB     69       OSM      C15      CTL5    -0.350000       12.0110           0
      7886 MEMB     69       OSM      H15A     HL       0.250000       1.00800           0
      7887 MEMB     69       OSM      H15B     HL       0.250000       1.00800           0
      7888 MEMB     69       OSM      H15C     HL       0.250000       1.00800           0
      7889 MEMB     69       OSM      C14      CTL5    -0.350000       12.0110           0
      7890 MEMB     69       OSM      H14A     HL       0.250000       1.00800           0
      7891 MEMB     69       OSM      H14B     HL       0.250000       1.00800           0
      7892 MEMB     69       OSM      H14C     HL       0.250000       1.00800           0
      7893 MEMB     69       OSM      C13      CTL5    -0.350000       12.0110           0
      7894 MEMB     69       OSM      H13A     HL       0.250000       1.00800           0
      7895 MEMB     69       OSM      H13B     HL       0.250000       1.00800           0
      7896 MEMB     69       OSM      H13C     HL       0.250000       1.00800           0
      7897 MEMB     69       OSM      C12      CTL2    -0.100000       12.0110           0
      7898 MEMB     69       OSM      H12A     HL       0.250000       1.00800           0
      7899 MEMB     69       OSM      H12B     HL       0.250000       1.00800           0
      7900 MEMB     69       OSM      C11      CTL2    -0.800000E-01   12.0110           0
      7901 MEMB     69       OSM      H11A     HAL2     0.900000E-01   1.00800           0
      7902 MEMB     69       OSM      H11B     HAL2     0.900000E-01   1.00800           0
      7903 MEMB     69       OSM      P        PL        1.50000       30.9740           0
      7904 MEMB     69       OSM      O13      O2L     -0.780000       15.9994           0
      7905 MEMB     69       OSM      O14      O2L     -0.780000       15.9994           0
      7906 MEMB     69       OSM      O11      OSLP    -0.570000       15.9994           0
      7907 MEMB     69       OSM      O12      OSLP    -0.570000       15.9994           0
      7908 MEMB     69       OSM      C1S      CTL2    -0.800000E-01   12.0110           0
      7909 MEMB     69       OSM      H1S      HAL2     0.900000E-01   1.00800           0
      7910 MEMB     69       OSM      H1T      HAL2     0.900000E-01   1.00800           0
      7911 MEMB     69       OSM      NF       NHL     -0.700000       14.0070           0
      7912 MEMB     69       OSM      HNF      H        0.350000       1.00800           0
      7913 MEMB     69       OSM      C2S      CTL1     0.300000       12.0110           0
      7914 MEMB     69       OSM      H2S      HAL1     0.500000E-01   1.00800           0
      7915 MEMB     69       OSM      C3S      CTO1     0.500000       12.0110           0
      7916 MEMB     69       OSM      H3S      HAL1    -0.110000       1.00800           0
      7917 MEMB     69       OSM      O3       OHL     -0.690000       15.9994           0
      7918 MEMB     69       OSM      HO3      HOL      0.300000       1.00800           0
      7919 MEMB     69       OSM      C4S      CEL3    -0.150000       12.0110           0
      7920 MEMB     69       OSM      H4S      HEL1     0.150000       1.00800           0
      7921 MEMB     69       OSM      C5S      CEL3    -0.150000       12.0110           0
      7922 MEMB     69       OSM      H5S      HEL1     0.150000       1.00800           0
      7923 MEMB     69       OSM      C6S      CTL2    -0.180000       12.0110           0
      7924 MEMB     69       OSM      H6S      HAL2     0.900000E-01   1.00800           0
      7925 MEMB     69       OSM      H6T      HAL2     0.900000E-01   1.00800           0
      7926 MEMB     69       OSM      C7S      CTL2    -0.180000       12.0110           0
      7927 MEMB     69       OSM      H7S      HAL2     0.900000E-01   1.00800           0
      7928 MEMB     69       OSM      H7T      HAL2     0.900000E-01   1.00800           0
      7929 MEMB     69       OSM      C8S      CTL2    -0.180000       12.0110           0
      7930 MEMB     69       OSM      H8S      HAL2     0.900000E-01   1.00800           0
      7931 MEMB     69       OSM      H8T      HAL2     0.900000E-01   1.00800           0
      7932 MEMB     69       OSM      C9S      CTL2    -0.180000       12.0110           0
      7933 MEMB     69       OSM      H9S      HAL2     0.900000E-01   1.00800           0
      7934 MEMB     69       OSM      H9T      HAL2     0.900000E-01   1.00800           0
      7935 MEMB     69       OSM      C10S     CTL2    -0.180000       12.0110           0
      7936 MEMB     69       OSM      H10S     HAL2     0.900000E-01   1.00800           0
      7937 MEMB     69       OSM      H10T     HAL2     0.900000E-01   1.00800           0
      7938 MEMB     69       OSM      C11S     CTL2    -0.180000       12.0110           0
      7939 MEMB     69       OSM      H11S     HAL2     0.900000E-01   1.00800           0
      7940 MEMB     69       OSM      H11T     HAL2     0.900000E-01   1.00800           0
      7941 MEMB     69       OSM      C12S     CTL2    -0.180000       12.0110           0
      7942 MEMB     69       OSM      H12S     HAL2     0.900000E-01   1.00800           0
      7943 MEMB     69       OSM      H12T     HAL2     0.900000E-01   1.00800           0
      7944 MEMB     69       OSM      C13S     CTL2    -0.180000       12.0110           0
      7945 MEMB     69       OSM      H13S     HAL2     0.900000E-01   1.00800           0
      7946 MEMB     69       OSM      H13T     HAL2     0.900000E-01   1.00800           0
      7947 MEMB     69       OSM      C14S     CTL2    -0.180000       12.0110           0
      7948 MEMB     69       OSM      H14S     HAL2     0.900000E-01   1.00800           0
      7949 MEMB     69       OSM      H14T     HAL2     0.900000E-01   1.00800           0
      7950 MEMB     69       OSM      C15S     CTL2    -0.180000       12.0110           0
      7951 MEMB     69       OSM      H15S     HAL2     0.900000E-01   1.00800           0
      7952 MEMB     69       OSM      H15T     HAL2     0.900000E-01   1.00800           0
      7953 MEMB     69       OSM      C16S     CTL2    -0.180000       12.0110           0
      7954 MEMB     69       OSM      H16S     HAL2     0.900000E-01   1.00800           0
      7955 MEMB     69       OSM      H16T     HAL2     0.900000E-01   1.00800           0
      7956 MEMB     69       OSM      C17S     CTL2    -0.180000       12.0110           0
      7957 MEMB     69       OSM      H17S     HAL2     0.900000E-01   1.00800           0
      7958 MEMB     69       OSM      H17T     HAL2     0.900000E-01   1.00800           0
      7959 MEMB     69       OSM      C18S     CTL3    -0.270000       12.0110           0
      7960 MEMB     69       OSM      H18S     HAL3     0.900000E-01   1.00800           0
      7961 MEMB     69       OSM      H18T     HAL3     0.900000E-01   1.00800           0
      7962 MEMB     69       OSM      H18U     HAL3     0.900000E-01   1.00800           0
      7963 MEMB     69       OSM      C1F      C        0.550000       12.0110           0
      7964 MEMB     69       OSM      OF       O       -0.600000       15.9994           0
      7965 MEMB     69       OSM      C2F      CTL2    -0.700000E-01   12.0110           0
      7966 MEMB     69       OSM      H2F      HAL2     0.600000E-01   1.00800           0
      7967 MEMB     69       OSM      H2G      HAL2     0.600000E-01   1.00800           0
      7968 MEMB     69       OSM      C3F      CTL2    -0.180000       12.0110           0
      7969 MEMB     69       OSM      H3F      HAL2     0.900000E-01   1.00800           0
      7970 MEMB     69       OSM      H3G      HAL2     0.900000E-01   1.00800           0
      7971 MEMB     69       OSM      C4F      CTL2    -0.180000       12.0110           0
      7972 MEMB     69       OSM      H4F      HAL2     0.900000E-01   1.00800           0
      7973 MEMB     69       OSM      H4G      HAL2     0.900000E-01   1.00800           0
      7974 MEMB     69       OSM      C5F      CTL2    -0.180000       12.0110           0
      7975 MEMB     69       OSM      H5F      HAL2     0.900000E-01   1.00800           0
      7976 MEMB     69       OSM      H5G      HAL2     0.900000E-01   1.00800           0
      7977 MEMB     69       OSM      C6F      CTL2    -0.180000       12.0110           0
      7978 MEMB     69       OSM      H6F      HAL2     0.900000E-01   1.00800           0
      7979 MEMB     69       OSM      H6G      HAL2     0.900000E-01   1.00800           0
      7980 MEMB     69       OSM      C7F      CTL2    -0.180000       12.0110           0
      7981 MEMB     69       OSM      H7F      HAL2     0.900000E-01   1.00800           0
      7982 MEMB     69       OSM      H7G      HAL2     0.900000E-01   1.00800           0
      7983 MEMB     69       OSM      C8F      CTL2    -0.180000       12.0110           0
      7984 MEMB     69       OSM      H8F      HAL2     0.900000E-01   1.00800           0
      7985 MEMB     69       OSM      H8G      HAL2     0.900000E-01   1.00800           0
      7986 MEMB     69       OSM      C9F      CEL1    -0.150000       12.0110           0
      7987 MEMB     69       OSM      H9F      HEL1     0.150000       1.00800           0
      7988 MEMB     69       OSM      C10F     CEL1    -0.150000       12.0110           0
      7989 MEMB     69       OSM      H10F     HEL1     0.150000       1.00800           0
      7990 MEMB     69       OSM      C11F     CTL2    -0.180000       12.0110           0
      7991 MEMB     69       OSM      H11F     HAL2     0.900000E-01   1.00800           0
      7992 MEMB     69       OSM      H11G     HAL2     0.900000E-01   1.00800           0
      7993 MEMB     69       OSM      C12F     CTL2    -0.180000       12.0110           0
      7994 MEMB     69       OSM      H12F     HAL2     0.900000E-01   1.00800           0
      7995 MEMB     69       OSM      H12G     HAL2     0.900000E-01   1.00800           0
      7996 MEMB     69       OSM      C13F     CTL2    -0.180000       12.0110           0
      7997 MEMB     69       OSM      H13F     HAL2     0.900000E-01   1.00800           0
      7998 MEMB     69       OSM      H13G     HAL2     0.900000E-01   1.00800           0
      7999 MEMB     69       OSM      C14F     CTL2    -0.180000       12.0110           0
      8000 MEMB     69       OSM      H14F     HAL2     0.900000E-01   1.00800           0
      8001 MEMB     69       OSM      H14G     HAL2     0.900000E-01   1.00800           0
      8002 MEMB     69       OSM      C15F     CTL2    -0.180000       12.0110           0
      8003 MEMB     69       OSM      H15F     HAL2     0.900000E-01   1.00800           0
      8004 MEMB     69       OSM      H15G     HAL2     0.900000E-01   1.00800           0
      8005 MEMB     69       OSM      C16F     CTL2    -0.180000       12.0110           0
      8006 MEMB     69       OSM      H16F     HAL2     0.900000E-01   1.00800           0
      8007 MEMB     69       OSM      H16G     HAL2     0.900000E-01   1.00800           0
      8008 MEMB     69       OSM      C17F     CTL2    -0.180000       12.0110           0
      8009 MEMB     69       OSM      H17F     HAL2     0.900000E-01   1.00800           0
      8010 MEMB     69       OSM      H17G     HAL2     0.900000E-01   1.00800           0
      8011 MEMB     69       OSM      C18F     CTL3    -0.270000       12.0110           0
      8012 MEMB     69       OSM      H18F     HAL3     0.900000E-01   1.00800           0
      8013 MEMB     69       OSM      H18G     HAL3     0.900000E-01   1.00800           0
      8014 MEMB     69       OSM      H18H     HAL3     0.900000E-01   1.00800           0
      8015 MEMB     70       SAPC     N        NTL     -0.600000       14.0070           0
      8016 MEMB     70       SAPC     C12      CTL2    -0.100000       12.0110           0
      8017 MEMB     70       SAPC     H12A     HL       0.250000       1.00800           0
      8018 MEMB     70       SAPC     H12B     HL       0.250000       1.00800           0
      8019 MEMB     70       SAPC     C13      CTL5    -0.350000       12.0110           0
      8020 MEMB     70       SAPC     H13A     HL       0.250000       1.00800           0
      8021 MEMB     70       SAPC     H13B     HL       0.250000       1.00800           0
      8022 MEMB     70       SAPC     H13C     HL       0.250000       1.00800           0
      8023 MEMB     70       SAPC     C14      CTL5    -0.350000       12.0110           0
      8024 MEMB     70       SAPC     H14A     HL       0.250000       1.00800           0
      8025 MEMB     70       SAPC     H14B     HL       0.250000       1.00800           0
      8026 MEMB     70       SAPC     H14C     HL       0.250000       1.00800           0
      8027 MEMB     70       SAPC     C15      CTL5    -0.350000       12.0110           0
      8028 MEMB     70       SAPC     H15A     HL       0.250000       1.00800           0
      8029 MEMB     70       SAPC     H15B     HL       0.250000       1.00800           0
      8030 MEMB     70       SAPC     H15C     HL       0.250000       1.00800           0
      8031 MEMB     70       SAPC     C11      CTL2    -0.800000E-01   12.0110           0
      8032 MEMB     70       SAPC     H11A     HAL2     0.900000E-01   1.00800           0
      8033 MEMB     70       SAPC     H11B     HAL2     0.900000E-01   1.00800           0
      8034 MEMB     70       SAPC     P        PL        1.50000       30.9740           0
      8035 MEMB     70       SAPC     O13      O2L     -0.780000       15.9994           0
      8036 MEMB     70       SAPC     O14      O2L     -0.780000       15.9994           0
      8037 MEMB     70       SAPC     O12      OSLP    -0.570000       15.9994           0
      8038 MEMB     70       SAPC     O11      OSLP    -0.570000       15.9994           0
      8039 MEMB     70       SAPC     C1       CTL2    -0.800000E-01   12.0110           0
      8040 MEMB     70       SAPC     HA       HAL2     0.900000E-01   1.00800           0
      8041 MEMB     70       SAPC     HB       HAL2     0.900000E-01   1.00800           0
      8042 MEMB     70       SAPC     C2       CTL1     0.170000       12.0110           0
      8043 MEMB     70       SAPC     HS       HAL1     0.900000E-01   1.00800           0
      8044 MEMB     70       SAPC     O21      OSL     -0.490000       15.9994           0
      8045 MEMB     70       SAPC     C21      CL       0.900000       12.0110           0
      8046 MEMB     70       SAPC     O22      OBL     -0.630000       15.9994           0
      8047 MEMB     70       SAPC     C22      CTL2    -0.220000       12.0110           0
      8048 MEMB     70       SAPC     H2R      HAL2     0.900000E-01   1.00800           0
      8049 MEMB     70       SAPC     H2S      HAL2     0.900000E-01   1.00800           0
      8050 MEMB     70       SAPC     C3       CTL2     0.800000E-01   12.0110           0
      8051 MEMB     70       SAPC     HX       HAL2     0.900000E-01   1.00800           0
      8052 MEMB     70       SAPC     HY       HAL2     0.900000E-01   1.00800           0
      8053 MEMB     70       SAPC     O31      OSL     -0.490000       15.9994           0
      8054 MEMB     70       SAPC     C31      CL       0.900000       12.0110           0
      8055 MEMB     70       SAPC     O32      OBL     -0.630000       15.9994           0
      8056 MEMB     70       SAPC     C32      CTL2    -0.220000       12.0110           0
      8057 MEMB     70       SAPC     H2X      HAL2     0.900000E-01   1.00800           0
      8058 MEMB     70       SAPC     H2Y      HAL2     0.900000E-01   1.00800           0
      8059 MEMB     70       SAPC     C23      CTL2    -0.180000       12.0110           0
      8060 MEMB     70       SAPC     H3R      HAL2     0.900000E-01   1.00800           0
      8061 MEMB     70       SAPC     H3S      HAL2     0.900000E-01   1.00800           0
      8062 MEMB     70       SAPC     C24      CTL2    -0.180000       12.0110           0
      8063 MEMB     70       SAPC     H4R      HAL2     0.900000E-01   1.00800           0
      8064 MEMB     70       SAPC     H4S      HAL2     0.900000E-01   1.00800           0
      8065 MEMB     70       SAPC     C25      CEL1    -0.150000       12.0110           0
      8066 MEMB     70       SAPC     H5R      HEL1     0.150000       1.00800           0
      8067 MEMB     70       SAPC     C26      CEL1    -0.150000       12.0110           0
      8068 MEMB     70       SAPC     H6R      HEL1     0.150000       1.00800           0
      8069 MEMB     70       SAPC     C27      CTL2    -0.180000       12.0110           0
      8070 MEMB     70       SAPC     H7R      HAL2     0.900000E-01   1.00800           0
      8071 MEMB     70       SAPC     H7S      HAL2     0.900000E-01   1.00800           0
      8072 MEMB     70       SAPC     C28      CEL1    -0.150000       12.0110           0
      8073 MEMB     70       SAPC     H8R      HEL1     0.150000       1.00800           0
      8074 MEMB     70       SAPC     C29      CEL1    -0.150000       12.0110           0
      8075 MEMB     70       SAPC     H9R      HEL1     0.150000       1.00800           0
      8076 MEMB     70       SAPC     C210     CTL2    -0.180000       12.0110           0
      8077 MEMB     70       SAPC     H10R     HAL2     0.900000E-01   1.00800           0
      8078 MEMB     70       SAPC     H10S     HAL2     0.900000E-01   1.00800           0
      8079 MEMB     70       SAPC     C211     CEL1    -0.150000       12.0110           0
      8080 MEMB     70       SAPC     H11R     HEL1     0.150000       1.00800           0
      8081 MEMB     70       SAPC     C212     CEL1    -0.150000       12.0110           0
      8082 MEMB     70       SAPC     H12R     HEL1     0.150000       1.00800           0
      8083 MEMB     70       SAPC     C213     CTL2    -0.180000       12.0110           0
      8084 MEMB     70       SAPC     H13R     HAL2     0.900000E-01   1.00800           0
      8085 MEMB     70       SAPC     H13S     HAL2     0.900000E-01   1.00800           0
      8086 MEMB     70       SAPC     C214     CEL1    -0.150000       12.0110           0
      8087 MEMB     70       SAPC     H14R     HEL1     0.150000       1.00800           0
      8088 MEMB     70       SAPC     C215     CEL1    -0.150000       12.0110           0
      8089 MEMB     70       SAPC     H15R     HEL1     0.150000       1.00800           0
      8090 MEMB     70       SAPC     C216     CTL2    -0.180000       12.0110           0
      8091 MEMB     70       SAPC     H16R     HAL2     0.900000E-01   1.00800           0
      8092 MEMB     70       SAPC     H16S     HAL2     0.900000E-01   1.00800           0
      8093 MEMB     70       SAPC     C217     CTL2    -0.180000       12.0110           0
      8094 MEMB     70       SAPC     H17R     HAL2     0.900000E-01   1.00800           0
      8095 MEMB     70       SAPC     H17S     HAL2     0.900000E-01   1.00800           0
      8096 MEMB     70       SAPC     C218     CTL2    -0.270000       12.0110           0
      8097 MEMB     70       SAPC     H18R     HAL2     0.900000E-01   1.00800           0
      8098 MEMB     70       SAPC     H18S     HAL2     0.900000E-01   1.00800           0
      8099 MEMB     70       SAPC     C219     CTL2    -0.180000       12.0110           0
      8100 MEMB     70       SAPC     H19R     HAL2     0.900000E-01   1.00800           0
      8101 MEMB     70       SAPC     H19S     HAL2     0.900000E-01   1.00800           0
      8102 MEMB     70       SAPC     C220     CTL3    -0.180000       12.0110           0
      8103 MEMB     70       SAPC     H20R     HAL3     0.900000E-01   1.00800           0
      8104 MEMB     70       SAPC     H20S     HAL3     0.900000E-01   1.00800           0
      8105 MEMB     70       SAPC     H20T     HAL3     0.900000E-01   1.00800           0
      8106 MEMB     70       SAPC     C33      CTL2    -0.180000       12.0110           0
      8107 MEMB     70       SAPC     H3X      HAL2     0.900000E-01   1.00800           0
      8108 MEMB     70       SAPC     H3Y      HAL2     0.900000E-01   1.00800           0
      8109 MEMB     70       SAPC     C34      CTL2    -0.180000       12.0110           0
      8110 MEMB     70       SAPC     H4X      HAL2     0.900000E-01   1.00800           0
      8111 MEMB     70       SAPC     H4Y      HAL2     0.900000E-01   1.00800           0
      8112 MEMB     70       SAPC     C35      CTL2    -0.180000       12.0110           0
      8113 MEMB     70       SAPC     H5X      HAL2     0.900000E-01   1.00800           0
      8114 MEMB     70       SAPC     H5Y      HAL2     0.900000E-01   1.00800           0
      8115 MEMB     70       SAPC     C36      CTL2    -0.180000       12.0110           0
      8116 MEMB     70       SAPC     H6X      HAL2     0.900000E-01   1.00800           0
      8117 MEMB     70       SAPC     H6Y      HAL2     0.900000E-01   1.00800           0
      8118 MEMB     70       SAPC     C37      CTL2    -0.180000       12.0110           0
      8119 MEMB     70       SAPC     H7X      HAL2     0.900000E-01   1.00800           0
      8120 MEMB     70       SAPC     H7Y      HAL2     0.900000E-01   1.00800           0
      8121 MEMB     70       SAPC     C38      CTL2    -0.180000       12.0110           0
      8122 MEMB     70       SAPC     H8X      HAL2     0.900000E-01   1.00800           0
      8123 MEMB     70       SAPC     H8Y      HAL2     0.900000E-01   1.00800           0
      8124 MEMB     70       SAPC     C39      CTL2    -0.180000       12.0110           0
      8125 MEMB     70       SAPC     H9X      HAL2     0.900000E-01   1.00800           0
      8126 MEMB     70       SAPC     H9Y      HAL2     0.900000E-01   1.00800           0
      8127 MEMB     70       SAPC     C310     CTL2    -0.180000       12.0110           0
      8128 MEMB     70       SAPC     H10X     HAL2     0.900000E-01   1.00800           0
      8129 MEMB     70       SAPC     H10Y     HAL2     0.900000E-01   1.00800           0
      8130 MEMB     70       SAPC     C311     CTL2    -0.180000       12.0110           0
      8131 MEMB     70       SAPC     H11X     HAL2     0.900000E-01   1.00800           0
      8132 MEMB     70       SAPC     H11Y     HAL2     0.900000E-01   1.00800           0
      8133 MEMB     70       SAPC     C312     CTL2    -0.180000       12.0110           0
      8134 MEMB     70       SAPC     H12X     HAL2     0.900000E-01   1.00800           0
      8135 MEMB     70       SAPC     H12Y     HAL2     0.900000E-01   1.00800           0
      8136 MEMB     70       SAPC     C313     CTL2    -0.180000       12.0110           0
      8137 MEMB     70       SAPC     H13X     HAL2     0.900000E-01   1.00800           0
      8138 MEMB     70       SAPC     H13Y     HAL2     0.900000E-01   1.00800           0
      8139 MEMB     70       SAPC     C314     CTL2    -0.180000       12.0110           0
      8140 MEMB     70       SAPC     H14X     HAL2     0.900000E-01   1.00800           0
      8141 MEMB     70       SAPC     H14Y     HAL2     0.900000E-01   1.00800           0
      8142 MEMB     70       SAPC     C315     CTL2    -0.180000       12.0110           0
      8143 MEMB     70       SAPC     H15X     HAL2     0.900000E-01   1.00800           0
      8144 MEMB     70       SAPC     H15Y     HAL2     0.900000E-01   1.00800           0
      8145 MEMB     70       SAPC     C316     CTL2    -0.180000       12.0110           0
      8146 MEMB     70       SAPC     H16X     HAL2     0.900000E-01   1.00800           0
      8147 MEMB     70       SAPC     H16Y     HAL2     0.900000E-01   1.00800           0
      8148 MEMB     70       SAPC     C317     CTL2    -0.180000       12.0110           0
      8149 MEMB     70       SAPC     H17X     HAL2     0.900000E-01   1.00800           0
      8150 MEMB     70       SAPC     H17Y     HAL2     0.900000E-01   1.00800           0
      8151 MEMB     70       SAPC     C318     CTL3    -0.270000       12.0110           0
      8152 MEMB     70       SAPC     H18X     HAL3     0.900000E-01   1.00800           0
      8153 MEMB     70       SAPC     H18Y     HAL3     0.900000E-01   1.00800           0
      8154 MEMB     70       SAPC     H18Z     HAL3     0.900000E-01   1.00800           0
      8155 MEMB     71       CHL1     C3       CRL1     0.140000       12.0110           0
      8156 MEMB     71       CHL1     H3       HGA1     0.900000E-01   1.00800           0
      8157 MEMB     71       CHL1     O3       OHL     -0.660000       15.9994           0
      8158 MEMB     71       CHL1     H3'      HOL      0.430000       1.00800           0
      8159 MEMB     71       CHL1     C4       CRL2    -0.180000       12.0110           0
      8160 MEMB     71       CHL1     H4A      HGA2     0.900000E-01   1.00800           0
      8161 MEMB     71       CHL1     H4B      HGA2     0.900000E-01   1.00800           0
      8162 MEMB     71       CHL1     C5       CEL1      0.00000       12.0110           0
      8163 MEMB     71       CHL1     C6       CEL1    -0.150000       12.0110           0
      8164 MEMB     71       CHL1     H6       HEL1     0.150000       1.00800           0
      8165 MEMB     71       CHL1     C7       CRL2    -0.180000       12.0110           0
      8166 MEMB     71       CHL1     H7A      HGA2     0.900000E-01   1.00800           0
      8167 MEMB     71       CHL1     H7B      HGA2     0.900000E-01   1.00800           0
      8168 MEMB     71       CHL1     C8       CRL1    -0.900000E-01   12.0110           0
      8169 MEMB     71       CHL1     H8       HGA1     0.900000E-01   1.00800           0
      8170 MEMB     71       CHL1     C14      CRL1    -0.900000E-01   12.0110           0
      8171 MEMB     71       CHL1     H14      HGA1     0.900000E-01   1.00800           0
      8172 MEMB     71       CHL1     C15      CRL2    -0.180000       12.0110           0
      8173 MEMB     71       CHL1     H15A     HGA2     0.900000E-01   1.00800           0
      8174 MEMB     71       CHL1     H15B     HGA2     0.900000E-01   1.00800           0
      8175 MEMB     71       CHL1     C16      CRL2    -0.180000       12.0110           0
      8176 MEMB     71       CHL1     H16A     HGA2     0.900000E-01   1.00800           0
      8177 MEMB     71       CHL1     H16B     HGA2     0.900000E-01   1.00800           0
      8178 MEMB     71       CHL1     C17      CRL1    -0.900000E-01   12.0110           0
      8179 MEMB     71       CHL1     H17      HGA1     0.900000E-01   1.00800           0
      8180 MEMB     71       CHL1     C13      CRL1      0.00000       12.0110           0
      8181 MEMB     71       CHL1     C18      CTL3    -0.270000       12.0110           0
      8182 MEMB     71       CHL1     H18A     HAL3     0.900000E-01   1.00800           0
      8183 MEMB     71       CHL1     H18B     HAL3     0.900000E-01   1.00800           0
      8184 MEMB     71       CHL1     H18C     HAL3     0.900000E-01   1.00800           0
      8185 MEMB     71       CHL1     C12      CRL2    -0.180000       12.0110           0
      8186 MEMB     71       CHL1     H12A     HGA2     0.900000E-01   1.00800           0
      8187 MEMB     71       CHL1     H12B     HGA2     0.900000E-01   1.00800           0
      8188 MEMB     71       CHL1     C11      CRL2    -0.180000       12.0110           0
      8189 MEMB     71       CHL1     H11A     HGA2     0.900000E-01   1.00800           0
      8190 MEMB     71       CHL1     H11B     HGA2     0.900000E-01   1.00800           0
      8191 MEMB     71       CHL1     C9       CRL1    -0.900000E-01   12.0110           0
      8192 MEMB     71       CHL1     H9       HGA1     0.900000E-01   1.00800           0
      8193 MEMB     71       CHL1     C10      CRL1      0.00000       12.0110           0
      8194 MEMB     71       CHL1     C19      CTL3    -0.270000       12.0110           0
      8195 MEMB     71       CHL1     H19A     HAL3     0.900000E-01   1.00800           0
      8196 MEMB     71       CHL1     H19B     HAL3     0.900000E-01   1.00800           0
      8197 MEMB     71       CHL1     H19C     HAL3     0.900000E-01   1.00800           0
      8198 MEMB     71       CHL1     C1       CRL2    -0.180000       12.0110           0
      8199 MEMB     71       CHL1     H1A      HGA2     0.900000E-01   1.00800           0
      8200 MEMB     71       CHL1     H1B      HGA2     0.900000E-01   1.00800           0
      8201 MEMB     71       CHL1     C2       CRL2    -0.180000       12.0110           0
      8202 MEMB     71       CHL1     H2A      HGA2     0.900000E-01   1.00800           0
      8203 MEMB     71       CHL1     H2B      HGA2     0.900000E-01   1.00800           0
      8204 MEMB     71       CHL1     C20      CTL1    -0.900000E-01   12.0110           0
      8205 MEMB     71       CHL1     H20      HAL1     0.900000E-01   1.00800           0
      8206 MEMB     71       CHL1     C21      CTL3    -0.270000       12.0110           0
      8207 MEMB     71       CHL1     H21A     HAL3     0.900000E-01   1.00800           0
      8208 MEMB     71       CHL1     H21B     HAL3     0.900000E-01   1.00800           0
      8209 MEMB     71       CHL1     H21C     HAL3     0.900000E-01   1.00800           0
      8210 MEMB     71       CHL1     C22      CTL2    -0.180000       12.0110           0
      8211 MEMB     71       CHL1     H22A     HAL2     0.900000E-01   1.00800           0
      8212 MEMB     71       CHL1     H22B     HAL2     0.900000E-01   1.00800           0
      8213 MEMB     71       CHL1     C23      CTL2    -0.180000       12.0110           0
      8214 MEMB     71       CHL1     H23A     HAL2     0.900000E-01   1.00800           0
      8215 MEMB     71       CHL1     H23B     HAL2     0.900000E-01   1.00800           0
      8216 MEMB     71       CHL1     C24      CTL2    -0.180000       12.0110           0
      8217 MEMB     71       CHL1     H24A     HAL2     0.900000E-01   1.00800           0
      8218 MEMB     71       CHL1     H24B     HAL2     0.900000E-01   1.00800           0
      8219 MEMB     71       CHL1     C25      CTL1    -0.900000E-01   12.0110           0
      8220 MEMB     71       CHL1     H25      HAL1     0.900000E-01   1.00800           0
      8221 MEMB     71       CHL1     C26      CTL3    -0.270000       12.0110           0
      8222 MEMB     71       CHL1     H26A     HAL3     0.900000E-01   1.00800           0
      8223 MEMB     71       CHL1     H26B     HAL3     0.900000E-01   1.00800           0
      8224 MEMB     71       CHL1     H26C     HAL3     0.900000E-01   1.00800           0
      8225 MEMB     71       CHL1     C27      CTL3    -0.270000       12.0110           0
      8226 MEMB     71       CHL1     H27A     HAL3     0.900000E-01   1.00800           0
      8227 MEMB     71       CHL1     H27B     HAL3     0.900000E-01   1.00800           0
      8228 MEMB     71       CHL1     H27C     HAL3     0.900000E-01   1.00800           0
      8229 MEMB     72       OSM      N        NTL     -0.600000       14.0070           0
      8230 MEMB     72       OSM      C15      CTL5    -0.350000       12.0110           0
      8231 MEMB     72       OSM      H15A     HL       0.250000       1.00800           0
      8232 MEMB     72       OSM      H15B     HL       0.250000       1.00800           0
      8233 MEMB     72       OSM      H15C     HL       0.250000       1.00800           0
      8234 MEMB     72       OSM      C14      CTL5    -0.350000       12.0110           0
      8235 MEMB     72       OSM      H14A     HL       0.250000       1.00800           0
      8236 MEMB     72       OSM      H14B     HL       0.250000       1.00800           0
      8237 MEMB     72       OSM      H14C     HL       0.250000       1.00800           0
      8238 MEMB     72       OSM      C13      CTL5    -0.350000       12.0110           0
      8239 MEMB     72       OSM      H13A     HL       0.250000       1.00800           0
      8240 MEMB     72       OSM      H13B     HL       0.250000       1.00800           0
      8241 MEMB     72       OSM      H13C     HL       0.250000       1.00800           0
      8242 MEMB     72       OSM      C12      CTL2    -0.100000       12.0110           0
      8243 MEMB     72       OSM      H12A     HL       0.250000       1.00800           0
      8244 MEMB     72       OSM      H12B     HL       0.250000       1.00800           0
      8245 MEMB     72       OSM      C11      CTL2    -0.800000E-01   12.0110           0
      8246 MEMB     72       OSM      H11A     HAL2     0.900000E-01   1.00800           0
      8247 MEMB     72       OSM      H11B     HAL2     0.900000E-01   1.00800           0
      8248 MEMB     72       OSM      P        PL        1.50000       30.9740           0
      8249 MEMB     72       OSM      O13      O2L     -0.780000       15.9994           0
      8250 MEMB     72       OSM      O14      O2L     -0.780000       15.9994           0
      8251 MEMB     72       OSM      O11      OSLP    -0.570000       15.9994           0
      8252 MEMB     72       OSM      O12      OSLP    -0.570000       15.9994           0
      8253 MEMB     72       OSM      C1S      CTL2    -0.800000E-01   12.0110           0
      8254 MEMB     72       OSM      H1S      HAL2     0.900000E-01   1.00800           0
      8255 MEMB     72       OSM      H1T      HAL2     0.900000E-01   1.00800           0
      8256 MEMB     72       OSM      NF       NHL     -0.700000       14.0070           0
      8257 MEMB     72       OSM      HNF      H        0.350000       1.00800           0
      8258 MEMB     72       OSM      C2S      CTL1     0.300000       12.0110           0
      8259 MEMB     72       OSM      H2S      HAL1     0.500000E-01   1.00800           0
      8260 MEMB     72       OSM      C3S      CTO1     0.500000       12.0110           0
      8261 MEMB     72       OSM      H3S      HAL1    -0.110000       1.00800           0
      8262 MEMB     72       OSM      O3       OHL     -0.690000       15.9994           0
      8263 MEMB     72       OSM      HO3      HOL      0.300000       1.00800           0
      8264 MEMB     72       OSM      C4S      CEL3    -0.150000       12.0110           0
      8265 MEMB     72       OSM      H4S      HEL1     0.150000       1.00800           0
      8266 MEMB     72       OSM      C5S      CEL3    -0.150000       12.0110           0
      8267 MEMB     72       OSM      H5S      HEL1     0.150000       1.00800           0
      8268 MEMB     72       OSM      C6S      CTL2    -0.180000       12.0110           0
      8269 MEMB     72       OSM      H6S      HAL2     0.900000E-01   1.00800           0
      8270 MEMB     72       OSM      H6T      HAL2     0.900000E-01   1.00800           0
      8271 MEMB     72       OSM      C7S      CTL2    -0.180000       12.0110           0
      8272 MEMB     72       OSM      H7S      HAL2     0.900000E-01   1.00800           0
      8273 MEMB     72       OSM      H7T      HAL2     0.900000E-01   1.00800           0
      8274 MEMB     72       OSM      C8S      CTL2    -0.180000       12.0110           0
      8275 MEMB     72       OSM      H8S      HAL2     0.900000E-01   1.00800           0
      8276 MEMB     72       OSM      H8T      HAL2     0.900000E-01   1.00800           0
      8277 MEMB     72       OSM      C9S      CTL2    -0.180000       12.0110           0
      8278 MEMB     72       OSM      H9S      HAL2     0.900000E-01   1.00800           0
      8279 MEMB     72       OSM      H9T      HAL2     0.900000E-01   1.00800           0
      8280 MEMB     72       OSM      C10S     CTL2    -0.180000       12.0110           0
      8281 MEMB     72       OSM      H10S     HAL2     0.900000E-01   1.00800           0
      8282 MEMB     72       OSM      H10T     HAL2     0.900000E-01   1.00800           0
      8283 MEMB     72       OSM      C11S     CTL2    -0.180000       12.0110           0
      8284 MEMB     72       OSM      H11S     HAL2     0.900000E-01   1.00800           0
      8285 MEMB     72       OSM      H11T     HAL2     0.900000E-01   1.00800           0
      8286 MEMB     72       OSM      C12S     CTL2    -0.180000       12.0110           0
      8287 MEMB     72       OSM      H12S     HAL2     0.900000E-01   1.00800           0
      8288 MEMB     72       OSM      H12T     HAL2     0.900000E-01   1.00800           0
      8289 MEMB     72       OSM      C13S     CTL2    -0.180000       12.0110           0
      8290 MEMB     72       OSM      H13S     HAL2     0.900000E-01   1.00800           0
      8291 MEMB     72       OSM      H13T     HAL2     0.900000E-01   1.00800           0
      8292 MEMB     72       OSM      C14S     CTL2    -0.180000       12.0110           0
      8293 MEMB     72       OSM      H14S     HAL2     0.900000E-01   1.00800           0
      8294 MEMB     72       OSM      H14T     HAL2     0.900000E-01   1.00800           0
      8295 MEMB     72       OSM      C15S     CTL2    -0.180000       12.0110           0
      8296 MEMB     72       OSM      H15S     HAL2     0.900000E-01   1.00800           0
      8297 MEMB     72       OSM      H15T     HAL2     0.900000E-01   1.00800           0
      8298 MEMB     72       OSM      C16S     CTL2    -0.180000       12.0110           0
      8299 MEMB     72       OSM      H16S     HAL2     0.900000E-01   1.00800           0
      8300 MEMB     72       OSM      H16T     HAL2     0.900000E-01   1.00800           0
      8301 MEMB     72       OSM      C17S     CTL2    -0.180000       12.0110           0
      8302 MEMB     72       OSM      H17S     HAL2     0.900000E-01   1.00800           0
      8303 MEMB     72       OSM      H17T     HAL2     0.900000E-01   1.00800           0
      8304 MEMB     72       OSM      C18S     CTL3    -0.270000       12.0110           0
      8305 MEMB     72       OSM      H18S     HAL3     0.900000E-01   1.00800           0
      8306 MEMB     72       OSM      H18T     HAL3     0.900000E-01   1.00800           0
      8307 MEMB     72       OSM      H18U     HAL3     0.900000E-01   1.00800           0
      8308 MEMB     72       OSM      C1F      C        0.550000       12.0110           0
      8309 MEMB     72       OSM      OF       O       -0.600000       15.9994           0
      8310 MEMB     72       OSM      C2F      CTL2    -0.700000E-01   12.0110           0
      8311 MEMB     72       OSM      H2F      HAL2     0.600000E-01   1.00800           0
      8312 MEMB     72       OSM      H2G      HAL2     0.600000E-01   1.00800           0
      8313 MEMB     72       OSM      C3F      CTL2    -0.180000       12.0110           0
      8314 MEMB     72       OSM      H3F      HAL2     0.900000E-01   1.00800           0
      8315 MEMB     72       OSM      H3G      HAL2     0.900000E-01   1.00800           0
      8316 MEMB     72       OSM      C4F      CTL2    -0.180000       12.0110           0
      8317 MEMB     72       OSM      H4F      HAL2     0.900000E-01   1.00800           0
      8318 MEMB     72       OSM      H4G      HAL2     0.900000E-01   1.00800           0
      8319 MEMB     72       OSM      C5F      CTL2    -0.180000       12.0110           0
      8320 MEMB     72       OSM      H5F      HAL2     0.900000E-01   1.00800           0
      8321 MEMB     72       OSM      H5G      HAL2     0.900000E-01   1.00800           0
      8322 MEMB     72       OSM      C6F      CTL2    -0.180000       12.0110           0
      8323 MEMB     72       OSM      H6F      HAL2     0.900000E-01   1.00800           0
      8324 MEMB     72       OSM      H6G      HAL2     0.900000E-01   1.00800           0
      8325 MEMB     72       OSM      C7F      CTL2    -0.180000       12.0110           0
      8326 MEMB     72       OSM      H7F      HAL2     0.900000E-01   1.00800           0
      8327 MEMB     72       OSM      H7G      HAL2     0.900000E-01   1.00800           0
      8328 MEMB     72       OSM      C8F      CTL2    -0.180000       12.0110           0
      8329 MEMB     72       OSM      H8F      HAL2     0.900000E-01   1.00800           0
      8330 MEMB     72       OSM      H8G      HAL2     0.900000E-01   1.00800           0
      8331 MEMB     72       OSM      C9F      CEL1    -0.150000       12.0110           0
      8332 MEMB     72       OSM      H9F      HEL1     0.150000       1.00800           0
      8333 MEMB     72       OSM      C10F     CEL1    -0.150000       12.0110           0
      8334 MEMB     72       OSM      H10F     HEL1     0.150000       1.00800           0
      8335 MEMB     72       OSM      C11F     CTL2    -0.180000       12.0110           0
      8336 MEMB     72       OSM      H11F     HAL2     0.900000E-01   1.00800           0
      8337 MEMB     72       OSM      H11G     HAL2     0.900000E-01   1.00800           0
      8338 MEMB     72       OSM      C12F     CTL2    -0.180000       12.0110           0
      8339 MEMB     72       OSM      H12F     HAL2     0.900000E-01   1.00800           0
      8340 MEMB     72       OSM      H12G     HAL2     0.900000E-01   1.00800           0
      8341 MEMB     72       OSM      C13F     CTL2    -0.180000       12.0110           0
      8342 MEMB     72       OSM      H13F     HAL2     0.900000E-01   1.00800           0
      8343 MEMB     72       OSM      H13G     HAL2     0.900000E-01   1.00800           0
      8344 MEMB     72       OSM      C14F     CTL2    -0.180000       12.0110           0
      8345 MEMB     72       OSM      H14F     HAL2     0.900000E-01   1.00800           0
      8346 MEMB     72       OSM      H14G     HAL2     0.900000E-01   1.00800           0
      8347 MEMB     72       OSM      C15F     CTL2    -0.180000       12.0110           0
      8348 MEMB     72       OSM      H15F     HAL2     0.900000E-01   1.00800           0
      8349 MEMB     72       OSM      H15G     HAL2     0.900000E-01   1.00800           0
      8350 MEMB     72       OSM      C16F     CTL2    -0.180000       12.0110           0
      8351 MEMB     72       OSM      H16F     HAL2     0.900000E-01   1.00800           0
      8352 MEMB     72       OSM      H16G     HAL2     0.900000E-01   1.00800           0
      8353 MEMB     72       OSM      C17F     CTL2    -0.180000       12.0110           0
      8354 MEMB     72       OSM      H17F     HAL2     0.900000E-01   1.00800           0
      8355 MEMB     72       OSM      H17G     HAL2     0.900000E-01   1.00800           0
      8356 MEMB     72       OSM      C18F     CTL3    -0.270000       12.0110           0
      8357 MEMB     72       OSM      H18F     HAL3     0.900000E-01   1.00800           0
      8358 MEMB     72       OSM      H18G     HAL3     0.900000E-01   1.00800           0
      8359 MEMB     72       OSM      H18H     HAL3     0.900000E-01   1.00800           0
      8360 MEMB     73       SLPC     N        NTL     -0.600000       14.0070           0
      8361 MEMB     73       SLPC     C13      CTL5    -0.350000       12.0110           0
      8362 MEMB     73       SLPC     H13A     HL       0.250000       1.00800           0
      8363 MEMB     73       SLPC     H13B     HL       0.250000       1.00800           0
      8364 MEMB     73       SLPC     H13C     HL       0.250000       1.00800           0
      8365 MEMB     73       SLPC     C14      CTL5    -0.350000       12.0110           0
      8366 MEMB     73       SLPC     H14A     HL       0.250000       1.00800           0
      8367 MEMB     73       SLPC     H14B     HL       0.250000       1.00800           0
      8368 MEMB     73       SLPC     H14C     HL       0.250000       1.00800           0
      8369 MEMB     73       SLPC     C15      CTL5    -0.350000       12.0110           0
      8370 MEMB     73       SLPC     H15A     HL       0.250000       1.00800           0
      8371 MEMB     73       SLPC     H15B     HL       0.250000       1.00800           0
      8372 MEMB     73       SLPC     H15C     HL       0.250000       1.00800           0
      8373 MEMB     73       SLPC     C12      CTL2    -0.100000       12.0110           0
      8374 MEMB     73       SLPC     H12A     HL       0.250000       1.00800           0
      8375 MEMB     73       SLPC     H12B     HL       0.250000       1.00800           0
      8376 MEMB     73       SLPC     C11      CTL2    -0.800000E-01   12.0110           0
      8377 MEMB     73       SLPC     H11A     HAL2     0.900000E-01   1.00800           0
      8378 MEMB     73       SLPC     H11B     HAL2     0.900000E-01   1.00800           0
      8379 MEMB     73       SLPC     P        PL        1.50000       30.9740           0
      8380 MEMB     73       SLPC     O13      O2L     -0.780000       15.9994           0
      8381 MEMB     73       SLPC     O14      O2L     -0.780000       15.9994           0
      8382 MEMB     73       SLPC     O12      OSLP    -0.570000       15.9994           0
      8383 MEMB     73       SLPC     O11      OSLP    -0.570000       15.9994           0
      8384 MEMB     73       SLPC     C1       CTL2    -0.800000E-01   12.0110           0
      8385 MEMB     73       SLPC     HA       HAL2     0.900000E-01   1.00800           0
      8386 MEMB     73       SLPC     HB       HAL2     0.900000E-01   1.00800           0
      8387 MEMB     73       SLPC     C2       CTL1     0.170000       12.0110           0
      8388 MEMB     73       SLPC     HS       HAL1     0.900000E-01   1.00800           0
      8389 MEMB     73       SLPC     O21      OSL     -0.490000       15.9994           0
      8390 MEMB     73       SLPC     C21      CL       0.900000       12.0110           0
      8391 MEMB     73       SLPC     O22      OBL     -0.630000       15.9994           0
      8392 MEMB     73       SLPC     C22      CTL2    -0.220000       12.0110           0
      8393 MEMB     73       SLPC     H2R      HAL2     0.900000E-01   1.00800           0
      8394 MEMB     73       SLPC     H2S      HAL2     0.900000E-01   1.00800           0
      8395 MEMB     73       SLPC     C3       CTL2     0.800000E-01   12.0110           0
      8396 MEMB     73       SLPC     HX       HAL2     0.900000E-01   1.00800           0
      8397 MEMB     73       SLPC     HY       HAL2     0.900000E-01   1.00800           0
      8398 MEMB     73       SLPC     O31      OSL     -0.490000       15.9994           0
      8399 MEMB     73       SLPC     C31      CL       0.900000       12.0110           0
      8400 MEMB     73       SLPC     O32      OBL     -0.630000       15.9994           0
      8401 MEMB     73       SLPC     C32      CTL2    -0.220000       12.0110           0
      8402 MEMB     73       SLPC     H2X      HAL2     0.900000E-01   1.00800           0
      8403 MEMB     73       SLPC     H2Y      HAL2     0.900000E-01   1.00800           0
      8404 MEMB     73       SLPC     C23      CTL2    -0.180000       12.0110           0
      8405 MEMB     73       SLPC     H3R      HAL2     0.900000E-01   1.00800           0
      8406 MEMB     73       SLPC     H3S      HAL2     0.900000E-01   1.00800           0
      8407 MEMB     73       SLPC     C24      CTL2    -0.180000       12.0110           0
      8408 MEMB     73       SLPC     H4R      HAL2     0.900000E-01   1.00800           0
      8409 MEMB     73       SLPC     H4S      HAL2     0.900000E-01   1.00800           0
      8410 MEMB     73       SLPC     C25      CTL2    -0.180000       12.0110           0
      8411 MEMB     73       SLPC     H5R      HAL2     0.900000E-01   1.00800           0
      8412 MEMB     73       SLPC     H5S      HAL2     0.900000E-01   1.00800           0
      8413 MEMB     73       SLPC     C26      CTL2    -0.180000       12.0110           0
      8414 MEMB     73       SLPC     H6R      HAL2     0.900000E-01   1.00800           0
      8415 MEMB     73       SLPC     H6S      HAL2     0.900000E-01   1.00800           0
      8416 MEMB     73       SLPC     C27      CTL2    -0.180000       12.0110           0
      8417 MEMB     73       SLPC     H7R      HAL2     0.900000E-01   1.00800           0
      8418 MEMB     73       SLPC     H7S      HAL2     0.900000E-01   1.00800           0
      8419 MEMB     73       SLPC     C28      CTL2    -0.180000       12.0110           0
      8420 MEMB     73       SLPC     H8R      HAL2     0.900000E-01   1.00800           0
      8421 MEMB     73       SLPC     H8S      HAL2     0.900000E-01   1.00800           0
      8422 MEMB     73       SLPC     C29      CEL1    -0.150000       12.0110           0
      8423 MEMB     73       SLPC     H9R      HEL1     0.150000       1.00800           0
      8424 MEMB     73       SLPC     C210     CEL1    -0.150000       12.0110           0
      8425 MEMB     73       SLPC     H10R     HEL1     0.150000       1.00800           0
      8426 MEMB     73       SLPC     C211     CTL2    -0.180000       12.0110           0
      8427 MEMB     73       SLPC     H11R     HAL2     0.900000E-01   1.00800           0
      8428 MEMB     73       SLPC     H11S     HAL2     0.900000E-01   1.00800           0
      8429 MEMB     73       SLPC     C212     CEL1    -0.150000       12.0110           0
      8430 MEMB     73       SLPC     H12R     HEL1     0.150000       1.00800           0
      8431 MEMB     73       SLPC     C213     CEL1    -0.150000       12.0110           0
      8432 MEMB     73       SLPC     H13R     HEL1     0.150000       1.00800           0
      8433 MEMB     73       SLPC     C214     CTL2    -0.180000       12.0110           0
      8434 MEMB     73       SLPC     H14R     HAL2     0.900000E-01   1.00800           0
      8435 MEMB     73       SLPC     H14S     HAL2     0.900000E-01   1.00800           0
      8436 MEMB     73       SLPC     C215     CTL2    -0.180000       12.0110           0
      8437 MEMB     73       SLPC     H15R     HAL2     0.900000E-01   1.00800           0
      8438 MEMB     73       SLPC     H15S     HAL2     0.900000E-01   1.00800           0
      8439 MEMB     73       SLPC     C216     CTL2    -0.180000       12.0110           0
      8440 MEMB     73       SLPC     H16R     HAL2     0.900000E-01   1.00800           0
      8441 MEMB     73       SLPC     H16S     HAL2     0.900000E-01   1.00800           0
      8442 MEMB     73       SLPC     C217     CTL2    -0.180000       12.0110           0
      8443 MEMB     73       SLPC     H17R     HAL2     0.900000E-01   1.00800           0
      8444 MEMB     73       SLPC     H17S     HAL2     0.900000E-01   1.00800           0
      8445 MEMB     73       SLPC     C218     CTL3    -0.270000       12.0110           0
      8446 MEMB     73       SLPC     H18R     HAL3     0.900000E-01   1.00800           0
      8447 MEMB     73       SLPC     H18S     HAL3     0.900000E-01   1.00800           0
      8448 MEMB     73       SLPC     H18T     HAL3     0.900000E-01   1.00800           0
      8449 MEMB     73       SLPC     C33      CTL2    -0.180000       12.0110           0
      8450 MEMB     73       SLPC     H3X      HAL2     0.900000E-01   1.00800           0
      8451 MEMB     73       SLPC     H3Y      HAL2     0.900000E-01   1.00800           0
      8452 MEMB     73       SLPC     C34      CTL2    -0.180000       12.0110           0
      8453 MEMB     73       SLPC     H4X      HAL2     0.900000E-01   1.00800           0
      8454 MEMB     73       SLPC     H4Y      HAL2     0.900000E-01   1.00800           0
      8455 MEMB     73       SLPC     C35      CTL2    -0.180000       12.0110           0
      8456 MEMB     73       SLPC     H5X      HAL2     0.900000E-01   1.00800           0
      8457 MEMB     73       SLPC     H5Y      HAL2     0.900000E-01   1.00800           0
      8458 MEMB     73       SLPC     C36      CTL2    -0.180000       12.0110           0
      8459 MEMB     73       SLPC     H6X      HAL2     0.900000E-01   1.00800           0
      8460 MEMB     73       SLPC     H6Y      HAL2     0.900000E-01   1.00800           0
      8461 MEMB     73       SLPC     C37      CTL2    -0.180000       12.0110           0
      8462 MEMB     73       SLPC     H7X      HAL2     0.900000E-01   1.00800           0
      8463 MEMB     73       SLPC     H7Y      HAL2     0.900000E-01   1.00800           0
      8464 MEMB     73       SLPC     C38      CTL2    -0.180000       12.0110           0
      8465 MEMB     73       SLPC     H8X      HAL2     0.900000E-01   1.00800           0
      8466 MEMB     73       SLPC     H8Y      HAL2     0.900000E-01   1.00800           0
      8467 MEMB     73       SLPC     C39      CTL2    -0.180000       12.0110           0
      8468 MEMB     73       SLPC     H9X      HAL2     0.900000E-01   1.00800           0
      8469 MEMB     73       SLPC     H9Y      HAL2     0.900000E-01   1.00800           0
      8470 MEMB     73       SLPC     C310     CTL2    -0.180000       12.0110           0
      8471 MEMB     73       SLPC     H10X     HAL2     0.900000E-01   1.00800           0
      8472 MEMB     73       SLPC     H10Y     HAL2     0.900000E-01   1.00800           0
      8473 MEMB     73       SLPC     C311     CTL2    -0.180000       12.0110           0
      8474 MEMB     73       SLPC     H11X     HAL2     0.900000E-01   1.00800           0
      8475 MEMB     73       SLPC     H11Y     HAL2     0.900000E-01   1.00800           0
      8476 MEMB     73       SLPC     C312     CTL2    -0.180000       12.0110           0
      8477 MEMB     73       SLPC     H12X     HAL2     0.900000E-01   1.00800           0
      8478 MEMB     73       SLPC     H12Y     HAL2     0.900000E-01   1.00800           0
      8479 MEMB     73       SLPC     C313     CTL2    -0.180000       12.0110           0
      8480 MEMB     73       SLPC     H13X     HAL2     0.900000E-01   1.00800           0
      8481 MEMB     73       SLPC     H13Y     HAL2     0.900000E-01   1.00800           0
      8482 MEMB     73       SLPC     C314     CTL2    -0.180000       12.0110           0
      8483 MEMB     73       SLPC     H14X     HAL2     0.900000E-01   1.00800           0
      8484 MEMB     73       SLPC     H14Y     HAL2     0.900000E-01   1.00800           0
      8485 MEMB     73       SLPC     C315     CTL2    -0.180000       12.0110           0
      8486 MEMB     73       SLPC     H15X     HAL2     0.900000E-01   1.00800           0
      8487 MEMB     73       SLPC     H15Y     HAL2     0.900000E-01   1.00800           0
      8488 MEMB     73       SLPC     C316     CTL2    -0.180000       12.0110           0
      8489 MEMB     73       SLPC     H16X     HAL2     0.900000E-01   1.00800           0
      8490 MEMB     73       SLPC     H16Y     HAL2     0.900000E-01   1.00800           0
      8491 MEMB     73       SLPC     C317     CTL2    -0.180000       12.0110           0
      8492 MEMB     73       SLPC     H17X     HAL2     0.900000E-01   1.00800           0
      8493 MEMB     73       SLPC     H17Y     HAL2     0.900000E-01   1.00800           0
      8494 MEMB     73       SLPC     C318     CTL3    -0.270000       12.0110           0
      8495 MEMB     73       SLPC     H18X     HAL3     0.900000E-01   1.00800           0
      8496 MEMB     73       SLPC     H18Y     HAL3     0.900000E-01   1.00800           0
      8497 MEMB     73       SLPC     H18Z     HAL3     0.900000E-01   1.00800           0
      8498 MEMB     74       SAPS     N        NH3L    -0.300000       14.0070           0
      8499 MEMB     74       SAPS     HN1      HCL      0.330000       1.00800           0
      8500 MEMB     74       SAPS     HN2      HCL      0.330000       1.00800           0
      8501 MEMB     74       SAPS     HN3      HCL      0.330000       1.00800           0
      8502 MEMB     74       SAPS     C12      CTL1     0.210000       12.0110           0
      8503 MEMB     74       SAPS     H12A     HBL      0.100000       1.00800           0
      8504 MEMB     74       SAPS     C13      CCL      0.340000       12.0110           0
      8505 MEMB     74       SAPS     O13A     OCL     -0.670000       15.9994           0
      8506 MEMB     74       SAPS     O13B     OCL     -0.670000       15.9994           0
      8507 MEMB     74       SAPS     C11      CTL2    -0.800000E-01   12.0110           0
      8508 MEMB     74       SAPS     H11A     HAL2     0.900000E-01   1.00800           0
      8509 MEMB     74       SAPS     H11B     HAL2     0.900000E-01   1.00800           0
      8510 MEMB     74       SAPS     P        PL        1.50000       30.9740           0
      8511 MEMB     74       SAPS     O13      O2L     -0.780000       15.9994           0
      8512 MEMB     74       SAPS     O14      O2L     -0.780000       15.9994           0
      8513 MEMB     74       SAPS     O12      OSLP    -0.570000       15.9994           0
      8514 MEMB     74       SAPS     O11      OSLP    -0.570000       15.9994           0
      8515 MEMB     74       SAPS     C1       CTL2    -0.800000E-01   12.0110           0
      8516 MEMB     74       SAPS     HA       HAL2     0.900000E-01   1.00800           0
      8517 MEMB     74       SAPS     HB       HAL2     0.900000E-01   1.00800           0
      8518 MEMB     74       SAPS     C2       CTL1     0.170000       12.0110           0
      8519 MEMB     74       SAPS     HS       HAL1     0.900000E-01   1.00800           0
      8520 MEMB     74       SAPS     O21      OSL     -0.490000       15.9994           0
      8521 MEMB     74       SAPS     C21      CL       0.900000       12.0110           0
      8522 MEMB     74       SAPS     O22      OBL     -0.630000       15.9994           0
      8523 MEMB     74       SAPS     C22      CTL2    -0.220000       12.0110           0
      8524 MEMB     74       SAPS     H2R      HAL2     0.900000E-01   1.00800           0
      8525 MEMB     74       SAPS     H2S      HAL2     0.900000E-01   1.00800           0
      8526 MEMB     74       SAPS     C3       CTL2     0.800000E-01   12.0110           0
      8527 MEMB     74       SAPS     HX       HAL2     0.900000E-01   1.00800           0
      8528 MEMB     74       SAPS     HY       HAL2     0.900000E-01   1.00800           0
      8529 MEMB     74       SAPS     O31      OSL     -0.490000       15.9994           0
      8530 MEMB     74       SAPS     C31      CL       0.900000       12.0110           0
      8531 MEMB     74       SAPS     O32      OBL     -0.630000       15.9994           0
      8532 MEMB     74       SAPS     C32      CTL2    -0.220000       12.0110           0
      8533 MEMB     74       SAPS     H2X      HAL2     0.900000E-01   1.00800           0
      8534 MEMB     74       SAPS     H2Y      HAL2     0.900000E-01   1.00800           0
      8535 MEMB     74       SAPS     C23      CTL2    -0.180000       12.0110           0
      8536 MEMB     74       SAPS     H3R      HAL2     0.900000E-01   1.00800           0
      8537 MEMB     74       SAPS     H3S      HAL2     0.900000E-01   1.00800           0
      8538 MEMB     74       SAPS     C24      CTL2    -0.180000       12.0110           0
      8539 MEMB     74       SAPS     H4R      HAL2     0.900000E-01   1.00800           0
      8540 MEMB     74       SAPS     H4S      HAL2     0.900000E-01   1.00800           0
      8541 MEMB     74       SAPS     C25      CEL1    -0.150000       12.0110           0
      8542 MEMB     74       SAPS     H5R      HEL1     0.150000       1.00800           0
      8543 MEMB     74       SAPS     C26      CEL1    -0.150000       12.0110           0
      8544 MEMB     74       SAPS     H6R      HEL1     0.150000       1.00800           0
      8545 MEMB     74       SAPS     C27      CTL2    -0.180000       12.0110           0
      8546 MEMB     74       SAPS     H7R      HAL2     0.900000E-01   1.00800           0
      8547 MEMB     74       SAPS     H7S      HAL2     0.900000E-01   1.00800           0
      8548 MEMB     74       SAPS     C28      CEL1    -0.150000       12.0110           0
      8549 MEMB     74       SAPS     H8R      HEL1     0.150000       1.00800           0
      8550 MEMB     74       SAPS     C29      CEL1    -0.150000       12.0110           0
      8551 MEMB     74       SAPS     H9R      HEL1     0.150000       1.00800           0
      8552 MEMB     74       SAPS     C210     CTL2    -0.180000       12.0110           0
      8553 MEMB     74       SAPS     H10R     HAL2     0.900000E-01   1.00800           0
      8554 MEMB     74       SAPS     H10S     HAL2     0.900000E-01   1.00800           0
      8555 MEMB     74       SAPS     C211     CEL1    -0.150000       12.0110           0
      8556 MEMB     74       SAPS     H11R     HEL1     0.150000       1.00800           0
      8557 MEMB     74       SAPS     C212     CEL1    -0.150000       12.0110           0
      8558 MEMB     74       SAPS     H12R     HEL1     0.150000       1.00800           0
      8559 MEMB     74       SAPS     C213     CTL2    -0.180000       12.0110           0
      8560 MEMB     74       SAPS     H13R     HAL2     0.900000E-01   1.00800           0
      8561 MEMB     74       SAPS     H13S     HAL2     0.900000E-01   1.00800           0
      8562 MEMB     74       SAPS     C214     CEL1    -0.150000       12.0110           0
      8563 MEMB     74       SAPS     H14R     HEL1     0.150000       1.00800           0
      8564 MEMB     74       SAPS     C215     CEL1    -0.150000       12.0110           0
      8565 MEMB     74       SAPS     H15R     HEL1     0.150000       1.00800           0
      8566 MEMB     74       SAPS     C216     CTL2    -0.180000       12.0110           0
      8567 MEMB     74       SAPS     H16R     HAL2     0.900000E-01   1.00800           0
      8568 MEMB     74       SAPS     H16S     HAL2     0.900000E-01   1.00800           0
      8569 MEMB     74       SAPS     C217     CTL2    -0.180000       12.0110           0
      8570 MEMB     74       SAPS     H17R     HAL2     0.900000E-01   1.00800           0
      8571 MEMB     74       SAPS     H17S     HAL2     0.900000E-01   1.00800           0
      8572 MEMB     74       SAPS     C218     CTL2    -0.180000       12.0110           0
      8573 MEMB     74       SAPS     H18R     HAL2     0.900000E-01   1.00800           0
      8574 MEMB     74       SAPS     H18S     HAL2     0.900000E-01   1.00800           0
      8575 MEMB     74       SAPS     C219     CTL2    -0.180000       12.0110           0
      8576 MEMB     74       SAPS     H19R     HAL2     0.900000E-01   1.00800           0
      8577 MEMB     74       SAPS     H19S     HAL2     0.900000E-01   1.00800           0
      8578 MEMB     74       SAPS     C220     CTL3    -0.270000       12.0110           0
      8579 MEMB     74       SAPS     H20R     HAL3     0.900000E-01   1.00800           0
      8580 MEMB     74       SAPS     H20S     HAL3     0.900000E-01   1.00800           0
      8581 MEMB     74       SAPS     H20T     HAL3     0.900000E-01   1.00800           0
      8582 MEMB     74       SAPS     C33      CTL2    -0.180000       12.0110           0
      8583 MEMB     74       SAPS     H3X      HAL2     0.900000E-01   1.00800           0
      8584 MEMB     74       SAPS     H3Y      HAL2     0.900000E-01   1.00800           0
      8585 MEMB     74       SAPS     C34      CTL2    -0.180000       12.0110           0
      8586 MEMB     74       SAPS     H4X      HAL2     0.900000E-01   1.00800           0
      8587 MEMB     74       SAPS     H4Y      HAL2     0.900000E-01   1.00800           0
      8588 MEMB     74       SAPS     C35      CTL2    -0.180000       12.0110           0
      8589 MEMB     74       SAPS     H5X      HAL2     0.900000E-01   1.00800           0
      8590 MEMB     74       SAPS     H5Y      HAL2     0.900000E-01   1.00800           0
      8591 MEMB     74       SAPS     C36      CTL2    -0.180000       12.0110           0
      8592 MEMB     74       SAPS     H6X      HAL2     0.900000E-01   1.00800           0
      8593 MEMB     74       SAPS     H6Y      HAL2     0.900000E-01   1.00800           0
      8594 MEMB     74       SAPS     C37      CTL2    -0.180000       12.0110           0
      8595 MEMB     74       SAPS     H7X      HAL2     0.900000E-01   1.00800           0
      8596 MEMB     74       SAPS     H7Y      HAL2     0.900000E-01   1.00800           0
      8597 MEMB     74       SAPS     C38      CTL2    -0.180000       12.0110           0
      8598 MEMB     74       SAPS     H8X      HAL2     0.900000E-01   1.00800           0
      8599 MEMB     74       SAPS     H8Y      HAL2     0.900000E-01   1.00800           0
      8600 MEMB     74       SAPS     C39      CTL2    -0.180000       12.0110           0
      8601 MEMB     74       SAPS     H9X      HAL2     0.900000E-01   1.00800           0
      8602 MEMB     74       SAPS     H9Y      HAL2     0.900000E-01   1.00800           0
      8603 MEMB     74       SAPS     C310     CTL2    -0.180000       12.0110           0
      8604 MEMB     74       SAPS     H10X     HAL2     0.900000E-01   1.00800           0
      8605 MEMB     74       SAPS     H10Y     HAL2     0.900000E-01   1.00800           0
      8606 MEMB     74       SAPS     C311     CTL2    -0.180000       12.0110           0
      8607 MEMB     74       SAPS     H11X     HAL2     0.900000E-01   1.00800           0
      8608 MEMB     74       SAPS     H11Y     HAL2     0.900000E-01   1.00800           0
      8609 MEMB     74       SAPS     C312     CTL2    -0.180000       12.0110           0
      8610 MEMB     74       SAPS     H12X     HAL2     0.900000E-01   1.00800           0
      8611 MEMB     74       SAPS     H12Y     HAL2     0.900000E-01   1.00800           0
      8612 MEMB     74       SAPS     C313     CTL2    -0.180000       12.0110           0
      8613 MEMB     74       SAPS     H13X     HAL2     0.900000E-01   1.00800           0
      8614 MEMB     74       SAPS     H13Y     HAL2     0.900000E-01   1.00800           0
      8615 MEMB     74       SAPS     C314     CTL2    -0.180000       12.0110           0
      8616 MEMB     74       SAPS     H14X     HAL2     0.900000E-01   1.00800           0
      8617 MEMB     74       SAPS     H14Y     HAL2     0.900000E-01   1.00800           0
      8618 MEMB     74       SAPS     C315     CTL2    -0.180000       12.0110           0
      8619 MEMB     74       SAPS     H15X     HAL2     0.900000E-01   1.00800           0
      8620 MEMB     74       SAPS     H15Y     HAL2     0.900000E-01   1.00800           0
      8621 MEMB     74       SAPS     C316     CTL2    -0.180000       12.0110           0
      8622 MEMB     74       SAPS     H16X     HAL2     0.900000E-01   1.00800           0
      8623 MEMB     74       SAPS     H16Y     HAL2     0.900000E-01   1.00800           0
      8624 MEMB     74       SAPS     C317     CTL2    -0.180000       12.0110           0
      8625 MEMB     74       SAPS     H17X     HAL2     0.900000E-01   1.00800           0
      8626 MEMB     74       SAPS     H17Y     HAL2     0.900000E-01   1.00800           0
      8627 MEMB     74       SAPS     C318     CTL3    -0.270000       12.0110           0
      8628 MEMB     74       SAPS     H18X     HAL3     0.900000E-01   1.00800           0
      8629 MEMB     74       SAPS     H18Y     HAL3     0.900000E-01   1.00800           0
      8630 MEMB     74       SAPS     H18Z     HAL3     0.900000E-01   1.00800           0
      8631 MEMB     75       SAPS     N        NH3L    -0.300000       14.0070           0
      8632 MEMB     75       SAPS     HN1      HCL      0.330000       1.00800           0
      8633 MEMB     75       SAPS     HN2      HCL      0.330000       1.00800           0
      8634 MEMB     75       SAPS     HN3      HCL      0.330000       1.00800           0
      8635 MEMB     75       SAPS     C12      CTL1     0.210000       12.0110           0
      8636 MEMB     75       SAPS     H12A     HBL      0.100000       1.00800           0
      8637 MEMB     75       SAPS     C13      CCL      0.340000       12.0110           0
      8638 MEMB     75       SAPS     O13A     OCL     -0.670000       15.9994           0
      8639 MEMB     75       SAPS     O13B     OCL     -0.670000       15.9994           0
      8640 MEMB     75       SAPS     C11      CTL2    -0.800000E-01   12.0110           0
      8641 MEMB     75       SAPS     H11A     HAL2     0.900000E-01   1.00800           0
      8642 MEMB     75       SAPS     H11B     HAL2     0.900000E-01   1.00800           0
      8643 MEMB     75       SAPS     P        PL        1.50000       30.9740           0
      8644 MEMB     75       SAPS     O13      O2L     -0.780000       15.9994           0
      8645 MEMB     75       SAPS     O14      O2L     -0.780000       15.9994           0
      8646 MEMB     75       SAPS     O12      OSLP    -0.570000       15.9994           0
      8647 MEMB     75       SAPS     O11      OSLP    -0.570000       15.9994           0
      8648 MEMB     75       SAPS     C1       CTL2    -0.800000E-01   12.0110           0
      8649 MEMB     75       SAPS     HA       HAL2     0.900000E-01   1.00800           0
      8650 MEMB     75       SAPS     HB       HAL2     0.900000E-01   1.00800           0
      8651 MEMB     75       SAPS     C2       CTL1     0.170000       12.0110           0
      8652 MEMB     75       SAPS     HS       HAL1     0.900000E-01   1.00800           0
      8653 MEMB     75       SAPS     O21      OSL     -0.490000       15.9994           0
      8654 MEMB     75       SAPS     C21      CL       0.900000       12.0110           0
      8655 MEMB     75       SAPS     O22      OBL     -0.630000       15.9994           0
      8656 MEMB     75       SAPS     C22      CTL2    -0.220000       12.0110           0
      8657 MEMB     75       SAPS     H2R      HAL2     0.900000E-01   1.00800           0
      8658 MEMB     75       SAPS     H2S      HAL2     0.900000E-01   1.00800           0
      8659 MEMB     75       SAPS     C3       CTL2     0.800000E-01   12.0110           0
      8660 MEMB     75       SAPS     HX       HAL2     0.900000E-01   1.00800           0
      8661 MEMB     75       SAPS     HY       HAL2     0.900000E-01   1.00800           0
      8662 MEMB     75       SAPS     O31      OSL     -0.490000       15.9994           0
      8663 MEMB     75       SAPS     C31      CL       0.900000       12.0110           0
      8664 MEMB     75       SAPS     O32      OBL     -0.630000       15.9994           0
      8665 MEMB     75       SAPS     C32      CTL2    -0.220000       12.0110           0
      8666 MEMB     75       SAPS     H2X      HAL2     0.900000E-01   1.00800           0
      8667 MEMB     75       SAPS     H2Y      HAL2     0.900000E-01   1.00800           0
      8668 MEMB     75       SAPS     C23      CTL2    -0.180000       12.0110           0
      8669 MEMB     75       SAPS     H3R      HAL2     0.900000E-01   1.00800           0
      8670 MEMB     75       SAPS     H3S      HAL2     0.900000E-01   1.00800           0
      8671 MEMB     75       SAPS     C24      CTL2    -0.180000       12.0110           0
      8672 MEMB     75       SAPS     H4R      HAL2     0.900000E-01   1.00800           0
      8673 MEMB     75       SAPS     H4S      HAL2     0.900000E-01   1.00800           0
      8674 MEMB     75       SAPS     C25      CEL1    -0.150000       12.0110           0
      8675 MEMB     75       SAPS     H5R      HEL1     0.150000       1.00800           0
      8676 MEMB     75       SAPS     C26      CEL1    -0.150000       12.0110           0
      8677 MEMB     75       SAPS     H6R      HEL1     0.150000       1.00800           0
      8678 MEMB     75       SAPS     C27      CTL2    -0.180000       12.0110           0
      8679 MEMB     75       SAPS     H7R      HAL2     0.900000E-01   1.00800           0
      8680 MEMB     75       SAPS     H7S      HAL2     0.900000E-01   1.00800           0
      8681 MEMB     75       SAPS     C28      CEL1    -0.150000       12.0110           0
      8682 MEMB     75       SAPS     H8R      HEL1     0.150000       1.00800           0
      8683 MEMB     75       SAPS     C29      CEL1    -0.150000       12.0110           0
      8684 MEMB     75       SAPS     H9R      HEL1     0.150000       1.00800           0
      8685 MEMB     75       SAPS     C210     CTL2    -0.180000       12.0110           0
      8686 MEMB     75       SAPS     H10R     HAL2     0.900000E-01   1.00800           0
      8687 MEMB     75       SAPS     H10S     HAL2     0.900000E-01   1.00800           0
      8688 MEMB     75       SAPS     C211     CEL1    -0.150000       12.0110           0
      8689 MEMB     75       SAPS     H11R     HEL1     0.150000       1.00800           0
      8690 MEMB     75       SAPS     C212     CEL1    -0.150000       12.0110           0
      8691 MEMB     75       SAPS     H12R     HEL1     0.150000       1.00800           0
      8692 MEMB     75       SAPS     C213     CTL2    -0.180000       12.0110           0
      8693 MEMB     75       SAPS     H13R     HAL2     0.900000E-01   1.00800           0
      8694 MEMB     75       SAPS     H13S     HAL2     0.900000E-01   1.00800           0
      8695 MEMB     75       SAPS     C214     CEL1    -0.150000       12.0110           0
      8696 MEMB     75       SAPS     H14R     HEL1     0.150000       1.00800           0
      8697 MEMB     75       SAPS     C215     CEL1    -0.150000       12.0110           0
      8698 MEMB     75       SAPS     H15R     HEL1     0.150000       1.00800           0
      8699 MEMB     75       SAPS     C216     CTL2    -0.180000       12.0110           0
      8700 MEMB     75       SAPS     H16R     HAL2     0.900000E-01   1.00800           0
      8701 MEMB     75       SAPS     H16S     HAL2     0.900000E-01   1.00800           0
      8702 MEMB     75       SAPS     C217     CTL2    -0.180000       12.0110           0
      8703 MEMB     75       SAPS     H17R     HAL2     0.900000E-01   1.00800           0
      8704 MEMB     75       SAPS     H17S     HAL2     0.900000E-01   1.00800           0
      8705 MEMB     75       SAPS     C218     CTL2    -0.180000       12.0110           0
      8706 MEMB     75       SAPS     H18R     HAL2     0.900000E-01   1.00800           0
      8707 MEMB     75       SAPS     H18S     HAL2     0.900000E-01   1.00800           0
      8708 MEMB     75       SAPS     C219     CTL2    -0.180000       12.0110           0
      8709 MEMB     75       SAPS     H19R     HAL2     0.900000E-01   1.00800           0
      8710 MEMB     75       SAPS     H19S     HAL2     0.900000E-01   1.00800           0
      8711 MEMB     75       SAPS     C220     CTL3    -0.270000       12.0110           0
      8712 MEMB     75       SAPS     H20R     HAL3     0.900000E-01   1.00800           0
      8713 MEMB     75       SAPS     H20S     HAL3     0.900000E-01   1.00800           0
      8714 MEMB     75       SAPS     H20T     HAL3     0.900000E-01   1.00800           0
      8715 MEMB     75       SAPS     C33      CTL2    -0.180000       12.0110           0
      8716 MEMB     75       SAPS     H3X      HAL2     0.900000E-01   1.00800           0
      8717 MEMB     75       SAPS     H3Y      HAL2     0.900000E-01   1.00800           0
      8718 MEMB     75       SAPS     C34      CTL2    -0.180000       12.0110           0
      8719 MEMB     75       SAPS     H4X      HAL2     0.900000E-01   1.00800           0
      8720 MEMB     75       SAPS     H4Y      HAL2     0.900000E-01   1.00800           0
      8721 MEMB     75       SAPS     C35      CTL2    -0.180000       12.0110           0
      8722 MEMB     75       SAPS     H5X      HAL2     0.900000E-01   1.00800           0
      8723 MEMB     75       SAPS     H5Y      HAL2     0.900000E-01   1.00800           0
      8724 MEMB     75       SAPS     C36      CTL2    -0.180000       12.0110           0
      8725 MEMB     75       SAPS     H6X      HAL2     0.900000E-01   1.00800           0
      8726 MEMB     75       SAPS     H6Y      HAL2     0.900000E-01   1.00800           0
      8727 MEMB     75       SAPS     C37      CTL2    -0.180000       12.0110           0
      8728 MEMB     75       SAPS     H7X      HAL2     0.900000E-01   1.00800           0
      8729 MEMB     75       SAPS     H7Y      HAL2     0.900000E-01   1.00800           0
      8730 MEMB     75       SAPS     C38      CTL2    -0.180000       12.0110           0
      8731 MEMB     75       SAPS     H8X      HAL2     0.900000E-01   1.00800           0
      8732 MEMB     75       SAPS     H8Y      HAL2     0.900000E-01   1.00800           0
      8733 MEMB     75       SAPS     C39      CTL2    -0.180000       12.0110           0
      8734 MEMB     75       SAPS     H9X      HAL2     0.900000E-01   1.00800           0
      8735 MEMB     75       SAPS     H9Y      HAL2     0.900000E-01   1.00800           0
      8736 MEMB     75       SAPS     C310     CTL2    -0.180000       12.0110           0
      8737 MEMB     75       SAPS     H10X     HAL2     0.900000E-01   1.00800           0
      8738 MEMB     75       SAPS     H10Y     HAL2     0.900000E-01   1.00800           0
      8739 MEMB     75       SAPS     C311     CTL2    -0.180000       12.0110           0
      8740 MEMB     75       SAPS     H11X     HAL2     0.900000E-01   1.00800           0
      8741 MEMB     75       SAPS     H11Y     HAL2     0.900000E-01   1.00800           0
      8742 MEMB     75       SAPS     C312     CTL2    -0.180000       12.0110           0
      8743 MEMB     75       SAPS     H12X     HAL2     0.900000E-01   1.00800           0
      8744 MEMB     75       SAPS     H12Y     HAL2     0.900000E-01   1.00800           0
      8745 MEMB     75       SAPS     C313     CTL2    -0.180000       12.0110           0
      8746 MEMB     75       SAPS     H13X     HAL2     0.900000E-01   1.00800           0
      8747 MEMB     75       SAPS     H13Y     HAL2     0.900000E-01   1.00800           0
      8748 MEMB     75       SAPS     C314     CTL2    -0.180000       12.0110           0
      8749 MEMB     75       SAPS     H14X     HAL2     0.900000E-01   1.00800           0
      8750 MEMB     75       SAPS     H14Y     HAL2     0.900000E-01   1.00800           0
      8751 MEMB     75       SAPS     C315     CTL2    -0.180000       12.0110           0
      8752 MEMB     75       SAPS     H15X     HAL2     0.900000E-01   1.00800           0
      8753 MEMB     75       SAPS     H15Y     HAL2     0.900000E-01   1.00800           0
      8754 MEMB     75       SAPS     C316     CTL2    -0.180000       12.0110           0
      8755 MEMB     75       SAPS     H16X     HAL2     0.900000E-01   1.00800           0
      8756 MEMB     75       SAPS     H16Y     HAL2     0.900000E-01   1.00800           0
      8757 MEMB     75       SAPS     C317     CTL2    -0.180000       12.0110           0
      8758 MEMB     75       SAPS     H17X     HAL2     0.900000E-01   1.00800           0
      8759 MEMB     75       SAPS     H17Y     HAL2     0.900000E-01   1.00800           0
      8760 MEMB     75       SAPS     C318     CTL3    -0.270000       12.0110           0
      8761 MEMB     75       SAPS     H18X     HAL3     0.900000E-01   1.00800           0
      8762 MEMB     75       SAPS     H18Y     HAL3     0.900000E-01   1.00800           0
      8763 MEMB     75       SAPS     H18Z     HAL3     0.900000E-01   1.00800           0
      8764 MEMB     76       POPC     N        NTL     -0.600000       14.0070           0
      8765 MEMB     76       POPC     C12      CTL2    -0.100000       12.0110           0
      8766 MEMB     76       POPC     H12A     HL       0.250000       1.00800           0
      8767 MEMB     76       POPC     H12B     HL       0.250000       1.00800           0
      8768 MEMB     76       POPC     C13      CTL5    -0.350000       12.0110           0
      8769 MEMB     76       POPC     H13A     HL       0.250000       1.00800           0
      8770 MEMB     76       POPC     H13B     HL       0.250000       1.00800           0
      8771 MEMB     76       POPC     H13C     HL       0.250000       1.00800           0
      8772 MEMB     76       POPC     C14      CTL5    -0.350000       12.0110           0
      8773 MEMB     76       POPC     H14A     HL       0.250000       1.00800           0
      8774 MEMB     76       POPC     H14B     HL       0.250000       1.00800           0
      8775 MEMB     76       POPC     H14C     HL       0.250000       1.00800           0
      8776 MEMB     76       POPC     C15      CTL5    -0.350000       12.0110           0
      8777 MEMB     76       POPC     H15A     HL       0.250000       1.00800           0
      8778 MEMB     76       POPC     H15B     HL       0.250000       1.00800           0
      8779 MEMB     76       POPC     H15C     HL       0.250000       1.00800           0
      8780 MEMB     76       POPC     C11      CTL2    -0.800000E-01   12.0110           0
      8781 MEMB     76       POPC     H11A     HAL2     0.900000E-01   1.00800           0
      8782 MEMB     76       POPC     H11B     HAL2     0.900000E-01   1.00800           0
      8783 MEMB     76       POPC     P        PL        1.50000       30.9740           0
      8784 MEMB     76       POPC     O13      O2L     -0.780000       15.9994           0
      8785 MEMB     76       POPC     O14      O2L     -0.780000       15.9994           0
      8786 MEMB     76       POPC     O12      OSLP    -0.570000       15.9994           0
      8787 MEMB     76       POPC     O11      OSLP    -0.570000       15.9994           0
      8788 MEMB     76       POPC     C1       CTL2    -0.800000E-01   12.0110           0
      8789 MEMB     76       POPC     HA       HAL2     0.900000E-01   1.00800           0
      8790 MEMB     76       POPC     HB       HAL2     0.900000E-01   1.00800           0
      8791 MEMB     76       POPC     C2       CTL1     0.170000       12.0110           0
      8792 MEMB     76       POPC     HS       HAL1     0.900000E-01   1.00800           0
      8793 MEMB     76       POPC     O21      OSL     -0.490000       15.9994           0
      8794 MEMB     76       POPC     C21      CL       0.900000       12.0110           0
      8795 MEMB     76       POPC     O22      OBL     -0.630000       15.9994           0
      8796 MEMB     76       POPC     C22      CTL2    -0.220000       12.0110           0
      8797 MEMB     76       POPC     H2R      HAL2     0.900000E-01   1.00800           0
      8798 MEMB     76       POPC     H2S      HAL2     0.900000E-01   1.00800           0
      8799 MEMB     76       POPC     C3       CTL2     0.800000E-01   12.0110           0
      8800 MEMB     76       POPC     HX       HAL2     0.900000E-01   1.00800           0
      8801 MEMB     76       POPC     HY       HAL2     0.900000E-01   1.00800           0
      8802 MEMB     76       POPC     O31      OSL     -0.490000       15.9994           0
      8803 MEMB     76       POPC     C31      CL       0.900000       12.0110           0
      8804 MEMB     76       POPC     O32      OBL     -0.630000       15.9994           0
      8805 MEMB     76       POPC     C32      CTL2    -0.220000       12.0110           0
      8806 MEMB     76       POPC     H2X      HAL2     0.900000E-01   1.00800           0
      8807 MEMB     76       POPC     H2Y      HAL2     0.900000E-01   1.00800           0
      8808 MEMB     76       POPC     C23      CTL2    -0.180000       12.0110           0
      8809 MEMB     76       POPC     H3R      HAL2     0.900000E-01   1.00800           0
      8810 MEMB     76       POPC     H3S      HAL2     0.900000E-01   1.00800           0
      8811 MEMB     76       POPC     C24      CTL2    -0.180000       12.0110           0
      8812 MEMB     76       POPC     H4R      HAL2     0.900000E-01   1.00800           0
      8813 MEMB     76       POPC     H4S      HAL2     0.900000E-01   1.00800           0
      8814 MEMB     76       POPC     C25      CTL2    -0.180000       12.0110           0
      8815 MEMB     76       POPC     H5R      HAL2     0.900000E-01   1.00800           0
      8816 MEMB     76       POPC     H5S      HAL2     0.900000E-01   1.00800           0
      8817 MEMB     76       POPC     C26      CTL2    -0.180000       12.0110           0
      8818 MEMB     76       POPC     H6R      HAL2     0.900000E-01   1.00800           0
      8819 MEMB     76       POPC     H6S      HAL2     0.900000E-01   1.00800           0
      8820 MEMB     76       POPC     C27      CTL2    -0.180000       12.0110           0
      8821 MEMB     76       POPC     H7R      HAL2     0.900000E-01   1.00800           0
      8822 MEMB     76       POPC     H7S      HAL2     0.900000E-01   1.00800           0
      8823 MEMB     76       POPC     C28      CTL2    -0.180000       12.0110           0
      8824 MEMB     76       POPC     H8R      HAL2     0.900000E-01   1.00800           0
      8825 MEMB     76       POPC     H8S      HAL2     0.900000E-01   1.00800           0
      8826 MEMB     76       POPC     C29      CEL1    -0.150000       12.0110           0
      8827 MEMB     76       POPC     H91      HEL1     0.150000       1.00800           0
      8828 MEMB     76       POPC     C210     CEL1    -0.150000       12.0110           0
      8829 MEMB     76       POPC     H101     HEL1     0.150000       1.00800           0
      8830 MEMB     76       POPC     C211     CTL2    -0.180000       12.0110           0
      8831 MEMB     76       POPC     H11R     HAL2     0.900000E-01   1.00800           0
      8832 MEMB     76       POPC     H11S     HAL2     0.900000E-01   1.00800           0
      8833 MEMB     76       POPC     C212     CTL2    -0.180000       12.0110           0
      8834 MEMB     76       POPC     H12R     HAL2     0.900000E-01   1.00800           0
      8835 MEMB     76       POPC     H12S     HAL2     0.900000E-01   1.00800           0
      8836 MEMB     76       POPC     C213     CTL2    -0.180000       12.0110           0
      8837 MEMB     76       POPC     H13R     HAL2     0.900000E-01   1.00800           0
      8838 MEMB     76       POPC     H13S     HAL2     0.900000E-01   1.00800           0
      8839 MEMB     76       POPC     C214     CTL2    -0.180000       12.0110           0
      8840 MEMB     76       POPC     H14R     HAL2     0.900000E-01   1.00800           0
      8841 MEMB     76       POPC     H14S     HAL2     0.900000E-01   1.00800           0
      8842 MEMB     76       POPC     C215     CTL2    -0.180000       12.0110           0
      8843 MEMB     76       POPC     H15R     HAL2     0.900000E-01   1.00800           0
      8844 MEMB     76       POPC     H15S     HAL2     0.900000E-01   1.00800           0
      8845 MEMB     76       POPC     C216     CTL2    -0.180000       12.0110           0
      8846 MEMB     76       POPC     H16R     HAL2     0.900000E-01   1.00800           0
      8847 MEMB     76       POPC     H16S     HAL2     0.900000E-01   1.00800           0
      8848 MEMB     76       POPC     C217     CTL2    -0.180000       12.0110           0
      8849 MEMB     76       POPC     H17R     HAL2     0.900000E-01   1.00800           0
      8850 MEMB     76       POPC     H17S     HAL2     0.900000E-01   1.00800           0
      8851 MEMB     76       POPC     C218     CTL3    -0.270000       12.0110           0
      8852 MEMB     76       POPC     H18R     HAL3     0.900000E-01   1.00800           0
      8853 MEMB     76       POPC     H18S     HAL3     0.900000E-01   1.00800           0
      8854 MEMB     76       POPC     H18T     HAL3     0.900000E-01   1.00800           0
      8855 MEMB     76       POPC     C33      CTL2    -0.180000       12.0110           0
      8856 MEMB     76       POPC     H3X      HAL2     0.900000E-01   1.00800           0
      8857 MEMB     76       POPC     H3Y      HAL2     0.900000E-01   1.00800           0
      8858 MEMB     76       POPC     C34      CTL2    -0.180000       12.0110           0
      8859 MEMB     76       POPC     H4X      HAL2     0.900000E-01   1.00800           0
      8860 MEMB     76       POPC     H4Y      HAL2     0.900000E-01   1.00800           0
      8861 MEMB     76       POPC     C35      CTL2    -0.180000       12.0110           0
      8862 MEMB     76       POPC     H5X      HAL2     0.900000E-01   1.00800           0
      8863 MEMB     76       POPC     H5Y      HAL2     0.900000E-01   1.00800           0
      8864 MEMB     76       POPC     C36      CTL2    -0.180000       12.0110           0
      8865 MEMB     76       POPC     H6X      HAL2     0.900000E-01   1.00800           0
      8866 MEMB     76       POPC     H6Y      HAL2     0.900000E-01   1.00800           0
      8867 MEMB     76       POPC     C37      CTL2    -0.180000       12.0110           0
      8868 MEMB     76       POPC     H7X      HAL2     0.900000E-01   1.00800           0
      8869 MEMB     76       POPC     H7Y      HAL2     0.900000E-01   1.00800           0
      8870 MEMB     76       POPC     C38      CTL2    -0.180000       12.0110           0
      8871 MEMB     76       POPC     H8X      HAL2     0.900000E-01   1.00800           0
      8872 MEMB     76       POPC     H8Y      HAL2     0.900000E-01   1.00800           0
      8873 MEMB     76       POPC     C39      CTL2    -0.180000       12.0110           0
      8874 MEMB     76       POPC     H9X      HAL2     0.900000E-01   1.00800           0
      8875 MEMB     76       POPC     H9Y      HAL2     0.900000E-01   1.00800           0
      8876 MEMB     76       POPC     C310     CTL2    -0.180000       12.0110           0
      8877 MEMB     76       POPC     H10X     HAL2     0.900000E-01   1.00800           0
      8878 MEMB     76       POPC     H10Y     HAL2     0.900000E-01   1.00800           0
      8879 MEMB     76       POPC     C311     CTL2    -0.180000       12.0110           0
      8880 MEMB     76       POPC     H11X     HAL2     0.900000E-01   1.00800           0
      8881 MEMB     76       POPC     H11Y     HAL2     0.900000E-01   1.00800           0
      8882 MEMB     76       POPC     C312     CTL2    -0.180000       12.0110           0
      8883 MEMB     76       POPC     H12X     HAL2     0.900000E-01   1.00800           0
      8884 MEMB     76       POPC     H12Y     HAL2     0.900000E-01   1.00800           0
      8885 MEMB     76       POPC     C313     CTL2    -0.180000       12.0110           0
      8886 MEMB     76       POPC     H13X     HAL2     0.900000E-01   1.00800           0
      8887 MEMB     76       POPC     H13Y     HAL2     0.900000E-01   1.00800           0
      8888 MEMB     76       POPC     C314     CTL2    -0.180000       12.0110           0
      8889 MEMB     76       POPC     H14X     HAL2     0.900000E-01   1.00800           0
      8890 MEMB     76       POPC     H14Y     HAL2     0.900000E-01   1.00800           0
      8891 MEMB     76       POPC     C315     CTL2    -0.180000       12.0110           0
      8892 MEMB     76       POPC     H15X     HAL2     0.900000E-01   1.00800           0
      8893 MEMB     76       POPC     H15Y     HAL2     0.900000E-01   1.00800           0
      8894 MEMB     76       POPC     C316     CTL3    -0.270000       12.0110           0
      8895 MEMB     76       POPC     H16X     HAL3     0.900000E-01   1.00800           0
      8896 MEMB     76       POPC     H16Y     HAL3     0.900000E-01   1.00800           0
      8897 MEMB     76       POPC     H16Z     HAL3     0.900000E-01   1.00800           0
      8898 MEMB     77       OSM      N        NTL     -0.600000       14.0070           0
      8899 MEMB     77       OSM      C15      CTL5    -0.350000       12.0110           0
      8900 MEMB     77       OSM      H15A     HL       0.250000       1.00800           0
      8901 MEMB     77       OSM      H15B     HL       0.250000       1.00800           0
      8902 MEMB     77       OSM      H15C     HL       0.250000       1.00800           0
      8903 MEMB     77       OSM      C14      CTL5    -0.350000       12.0110           0
      8904 MEMB     77       OSM      H14A     HL       0.250000       1.00800           0
      8905 MEMB     77       OSM      H14B     HL       0.250000       1.00800           0
      8906 MEMB     77       OSM      H14C     HL       0.250000       1.00800           0
      8907 MEMB     77       OSM      C13      CTL5    -0.350000       12.0110           0
      8908 MEMB     77       OSM      H13A     HL       0.250000       1.00800           0
      8909 MEMB     77       OSM      H13B     HL       0.250000       1.00800           0
      8910 MEMB     77       OSM      H13C     HL       0.250000       1.00800           0
      8911 MEMB     77       OSM      C12      CTL2    -0.100000       12.0110           0
      8912 MEMB     77       OSM      H12A     HL       0.250000       1.00800           0
      8913 MEMB     77       OSM      H12B     HL       0.250000       1.00800           0
      8914 MEMB     77       OSM      C11      CTL2    -0.800000E-01   12.0110           0
      8915 MEMB     77       OSM      H11A     HAL2     0.900000E-01   1.00800           0
      8916 MEMB     77       OSM      H11B     HAL2     0.900000E-01   1.00800           0
      8917 MEMB     77       OSM      P        PL        1.50000       30.9740           0
      8918 MEMB     77       OSM      O13      O2L     -0.780000       15.9994           0
      8919 MEMB     77       OSM      O14      O2L     -0.780000       15.9994           0
      8920 MEMB     77       OSM      O11      OSLP    -0.570000       15.9994           0
      8921 MEMB     77       OSM      O12      OSLP    -0.570000       15.9994           0
      8922 MEMB     77       OSM      C1S      CTL2    -0.800000E-01   12.0110           0
      8923 MEMB     77       OSM      H1S      HAL2     0.900000E-01   1.00800           0
      8924 MEMB     77       OSM      H1T      HAL2     0.900000E-01   1.00800           0
      8925 MEMB     77       OSM      NF       NHL     -0.700000       14.0070           0
      8926 MEMB     77       OSM      HNF      H        0.350000       1.00800           0
      8927 MEMB     77       OSM      C2S      CTL1     0.300000       12.0110           0
      8928 MEMB     77       OSM      H2S      HAL1     0.500000E-01   1.00800           0
      8929 MEMB     77       OSM      C3S      CTO1     0.500000       12.0110           0
      8930 MEMB     77       OSM      H3S      HAL1    -0.110000       1.00800           0
      8931 MEMB     77       OSM      O3       OHL     -0.690000       15.9994           0
      8932 MEMB     77       OSM      HO3      HOL      0.300000       1.00800           0
      8933 MEMB     77       OSM      C4S      CEL3    -0.150000       12.0110           0
      8934 MEMB     77       OSM      H4S      HEL1     0.150000       1.00800           0
      8935 MEMB     77       OSM      C5S      CEL3    -0.150000       12.0110           0
      8936 MEMB     77       OSM      H5S      HEL1     0.150000       1.00800           0
      8937 MEMB     77       OSM      C6S      CTL2    -0.180000       12.0110           0
      8938 MEMB     77       OSM      H6S      HAL2     0.900000E-01   1.00800           0
      8939 MEMB     77       OSM      H6T      HAL2     0.900000E-01   1.00800           0
      8940 MEMB     77       OSM      C7S      CTL2    -0.180000       12.0110           0
      8941 MEMB     77       OSM      H7S      HAL2     0.900000E-01   1.00800           0
      8942 MEMB     77       OSM      H7T      HAL2     0.900000E-01   1.00800           0
      8943 MEMB     77       OSM      C8S      CTL2    -0.180000       12.0110           0
      8944 MEMB     77       OSM      H8S      HAL2     0.900000E-01   1.00800           0
      8945 MEMB     77       OSM      H8T      HAL2     0.900000E-01   1.00800           0
      8946 MEMB     77       OSM      C9S      CTL2    -0.180000       12.0110           0
      8947 MEMB     77       OSM      H9S      HAL2     0.900000E-01   1.00800           0
      8948 MEMB     77       OSM      H9T      HAL2     0.900000E-01   1.00800           0
      8949 MEMB     77       OSM      C10S     CTL2    -0.180000       12.0110           0
      8950 MEMB     77       OSM      H10S     HAL2     0.900000E-01   1.00800           0
      8951 MEMB     77       OSM      H10T     HAL2     0.900000E-01   1.00800           0
      8952 MEMB     77       OSM      C11S     CTL2    -0.180000       12.0110           0
      8953 MEMB     77       OSM      H11S     HAL2     0.900000E-01   1.00800           0
      8954 MEMB     77       OSM      H11T     HAL2     0.900000E-01   1.00800           0
      8955 MEMB     77       OSM      C12S     CTL2    -0.180000       12.0110           0
      8956 MEMB     77       OSM      H12S     HAL2     0.900000E-01   1.00800           0
      8957 MEMB     77       OSM      H12T     HAL2     0.900000E-01   1.00800           0
      8958 MEMB     77       OSM      C13S     CTL2    -0.180000       12.0110           0
      8959 MEMB     77       OSM      H13S     HAL2     0.900000E-01   1.00800           0
      8960 MEMB     77       OSM      H13T     HAL2     0.900000E-01   1.00800           0
      8961 MEMB     77       OSM      C14S     CTL2    -0.180000       12.0110           0
      8962 MEMB     77       OSM      H14S     HAL2     0.900000E-01   1.00800           0
      8963 MEMB     77       OSM      H14T     HAL2     0.900000E-01   1.00800           0
      8964 MEMB     77       OSM      C15S     CTL2    -0.180000       12.0110           0
      8965 MEMB     77       OSM      H15S     HAL2     0.900000E-01   1.00800           0
      8966 MEMB     77       OSM      H15T     HAL2     0.900000E-01   1.00800           0
      8967 MEMB     77       OSM      C16S     CTL2    -0.180000       12.0110           0
      8968 MEMB     77       OSM      H16S     HAL2     0.900000E-01   1.00800           0
      8969 MEMB     77       OSM      H16T     HAL2     0.900000E-01   1.00800           0
      8970 MEMB     77       OSM      C17S     CTL2    -0.180000       12.0110           0
      8971 MEMB     77       OSM      H17S     HAL2     0.900000E-01   1.00800           0
      8972 MEMB     77       OSM      H17T     HAL2     0.900000E-01   1.00800           0
      8973 MEMB     77       OSM      C18S     CTL3    -0.270000       12.0110           0
      8974 MEMB     77       OSM      H18S     HAL3     0.900000E-01   1.00800           0
      8975 MEMB     77       OSM      H18T     HAL3     0.900000E-01   1.00800           0
      8976 MEMB     77       OSM      H18U     HAL3     0.900000E-01   1.00800           0
      8977 MEMB     77       OSM      C1F      C        0.550000       12.0110           0
      8978 MEMB     77       OSM      OF       O       -0.600000       15.9994           0
      8979 MEMB     77       OSM      C2F      CTL2    -0.700000E-01   12.0110           0
      8980 MEMB     77       OSM      H2F      HAL2     0.600000E-01   1.00800           0
      8981 MEMB     77       OSM      H2G      HAL2     0.600000E-01   1.00800           0
      8982 MEMB     77       OSM      C3F      CTL2    -0.180000       12.0110           0
      8983 MEMB     77       OSM      H3F      HAL2     0.900000E-01   1.00800           0
      8984 MEMB     77       OSM      H3G      HAL2     0.900000E-01   1.00800           0
      8985 MEMB     77       OSM      C4F      CTL2    -0.180000       12.0110           0
      8986 MEMB     77       OSM      H4F      HAL2     0.900000E-01   1.00800           0
      8987 MEMB     77       OSM      H4G      HAL2     0.900000E-01   1.00800           0
      8988 MEMB     77       OSM      C5F      CTL2    -0.180000       12.0110           0
      8989 MEMB     77       OSM      H5F      HAL2     0.900000E-01   1.00800           0
      8990 MEMB     77       OSM      H5G      HAL2     0.900000E-01   1.00800           0
      8991 MEMB     77       OSM      C6F      CTL2    -0.180000       12.0110           0
      8992 MEMB     77       OSM      H6F      HAL2     0.900000E-01   1.00800           0
      8993 MEMB     77       OSM      H6G      HAL2     0.900000E-01   1.00800           0
      8994 MEMB     77       OSM      C7F      CTL2    -0.180000       12.0110           0
      8995 MEMB     77       OSM      H7F      HAL2     0.900000E-01   1.00800           0
      8996 MEMB     77       OSM      H7G      HAL2     0.900000E-01   1.00800           0
      8997 MEMB     77       OSM      C8F      CTL2    -0.180000       12.0110           0
      8998 MEMB     77       OSM      H8F      HAL2     0.900000E-01   1.00800           0
      8999 MEMB     77       OSM      H8G      HAL2     0.900000E-01   1.00800           0
      9000 MEMB     77       OSM      C9F      CEL1    -0.150000       12.0110           0
      9001 MEMB     77       OSM      H9F      HEL1     0.150000       1.00800           0
      9002 MEMB     77       OSM      C10F     CEL1    -0.150000       12.0110           0
      9003 MEMB     77       OSM      H10F     HEL1     0.150000       1.00800           0
      9004 MEMB     77       OSM      C11F     CTL2    -0.180000       12.0110           0
      9005 MEMB     77       OSM      H11F     HAL2     0.900000E-01   1.00800           0
      9006 MEMB     77       OSM      H11G     HAL2     0.900000E-01   1.00800           0
      9007 MEMB     77       OSM      C12F     CTL2    -0.180000       12.0110           0
      9008 MEMB     77       OSM      H12F     HAL2     0.900000E-01   1.00800           0
      9009 MEMB     77       OSM      H12G     HAL2     0.900000E-01   1.00800           0
      9010 MEMB     77       OSM      C13F     CTL2    -0.180000       12.0110           0
      9011 MEMB     77       OSM      H13F     HAL2     0.900000E-01   1.00800           0
      9012 MEMB     77       OSM      H13G     HAL2     0.900000E-01   1.00800           0
      9013 MEMB     77       OSM      C14F     CTL2    -0.180000       12.0110           0
      9014 MEMB     77       OSM      H14F     HAL2     0.900000E-01   1.00800           0
      9015 MEMB     77       OSM      H14G     HAL2     0.900000E-01   1.00800           0
      9016 MEMB     77       OSM      C15F     CTL2    -0.180000       12.0110           0
      9017 MEMB     77       OSM      H15F     HAL2     0.900000E-01   1.00800           0
      9018 MEMB     77       OSM      H15G     HAL2     0.900000E-01   1.00800           0
      9019 MEMB     77       OSM      C16F     CTL2    -0.180000       12.0110           0
      9020 MEMB     77       OSM      H16F     HAL2     0.900000E-01   1.00800           0
      9021 MEMB     77       OSM      H16G     HAL2     0.900000E-01   1.00800           0
      9022 MEMB     77       OSM      C17F     CTL2    -0.180000       12.0110           0
      9023 MEMB     77       OSM      H17F     HAL2     0.900000E-01   1.00800           0
      9024 MEMB     77       OSM      H17G     HAL2     0.900000E-01   1.00800           0
      9025 MEMB     77       OSM      C18F     CTL3    -0.270000       12.0110           0
      9026 MEMB     77       OSM      H18F     HAL3     0.900000E-01   1.00800           0
      9027 MEMB     77       OSM      H18G     HAL3     0.900000E-01   1.00800           0
      9028 MEMB     77       OSM      H18H     HAL3     0.900000E-01   1.00800           0
      9029 MEMB     78       SAPE     N        NH3L    -0.300000       14.0070           0
      9030 MEMB     78       SAPE     HN1      HCL      0.330000       1.00800           0
      9031 MEMB     78       SAPE     HN2      HCL      0.330000       1.00800           0
      9032 MEMB     78       SAPE     HN3      HCL      0.330000       1.00800           0
      9033 MEMB     78       SAPE     C12      CTL2     0.130000       12.0110           0
      9034 MEMB     78       SAPE     H12A     HAL2     0.900000E-01   1.00800           0
      9035 MEMB     78       SAPE     H12B     HAL2     0.900000E-01   1.00800           0
      9036 MEMB     78       SAPE     C11      CTL2    -0.800000E-01   12.0110           0
      9037 MEMB     78       SAPE     H11A     HAL2     0.900000E-01   1.00800           0
      9038 MEMB     78       SAPE     H11B     HAL2     0.900000E-01   1.00800           0
      9039 MEMB     78       SAPE     P        PL        1.50000       30.9740           0
      9040 MEMB     78       SAPE     O13      O2L     -0.780000       15.9994           0
      9041 MEMB     78       SAPE     O14      O2L     -0.780000       15.9994           0
      9042 MEMB     78       SAPE     O12      OSLP    -0.570000       15.9994           0
      9043 MEMB     78       SAPE     O11      OSLP    -0.570000       15.9994           0
      9044 MEMB     78       SAPE     C1       CTL2    -0.800000E-01   12.0110           0
      9045 MEMB     78       SAPE     HA       HAL2     0.900000E-01   1.00800           0
      9046 MEMB     78       SAPE     HB       HAL2     0.900000E-01   1.00800           0
      9047 MEMB     78       SAPE     C2       CTL1     0.170000       12.0110           0
      9048 MEMB     78       SAPE     HS       HAL1     0.900000E-01   1.00800           0
      9049 MEMB     78       SAPE     O21      OSL     -0.490000       15.9994           0
      9050 MEMB     78       SAPE     C21      CL       0.900000       12.0110           0
      9051 MEMB     78       SAPE     O22      OBL     -0.630000       15.9994           0
      9052 MEMB     78       SAPE     C22      CTL2    -0.220000       12.0110           0
      9053 MEMB     78       SAPE     H2R      HAL2     0.900000E-01   1.00800           0
      9054 MEMB     78       SAPE     H2S      HAL2     0.900000E-01   1.00800           0
      9055 MEMB     78       SAPE     C3       CTL2     0.800000E-01   12.0110           0
      9056 MEMB     78       SAPE     HX       HAL2     0.900000E-01   1.00800           0
      9057 MEMB     78       SAPE     HY       HAL2     0.900000E-01   1.00800           0
      9058 MEMB     78       SAPE     O31      OSL     -0.490000       15.9994           0
      9059 MEMB     78       SAPE     C31      CL       0.900000       12.0110           0
      9060 MEMB     78       SAPE     O32      OBL     -0.630000       15.9994           0
      9061 MEMB     78       SAPE     C32      CTL2    -0.220000       12.0110           0
      9062 MEMB     78       SAPE     H2X      HAL2     0.900000E-01   1.00800           0
      9063 MEMB     78       SAPE     H2Y      HAL2     0.900000E-01   1.00800           0
      9064 MEMB     78       SAPE     C23      CTL2    -0.180000       12.0110           0
      9065 MEMB     78       SAPE     H3R      HAL2     0.900000E-01   1.00800           0
      9066 MEMB     78       SAPE     H3S      HAL2     0.900000E-01   1.00800           0
      9067 MEMB     78       SAPE     C24      CTL2    -0.180000       12.0110           0
      9068 MEMB     78       SAPE     H4R      HAL2     0.900000E-01   1.00800           0
      9069 MEMB     78       SAPE     H4S      HAL2     0.900000E-01   1.00800           0
      9070 MEMB     78       SAPE     C25      CEL1    -0.150000       12.0110           0
      9071 MEMB     78       SAPE     H5R      HEL1     0.150000       1.00800           0
      9072 MEMB     78       SAPE     C26      CEL1    -0.150000       12.0110           0
      9073 MEMB     78       SAPE     H6R      HEL1     0.150000       1.00800           0
      9074 MEMB     78       SAPE     C27      CTL2    -0.180000       12.0110           0
      9075 MEMB     78       SAPE     H7R      HAL2     0.900000E-01   1.00800           0
      9076 MEMB     78       SAPE     H7S      HAL2     0.900000E-01   1.00800           0
      9077 MEMB     78       SAPE     C28      CEL1    -0.150000       12.0110           0
      9078 MEMB     78       SAPE     H8R      HEL1     0.150000       1.00800           0
      9079 MEMB     78       SAPE     C29      CEL1    -0.150000       12.0110           0
      9080 MEMB     78       SAPE     H9R      HEL1     0.150000       1.00800           0
      9081 MEMB     78       SAPE     C210     CTL2    -0.180000       12.0110           0
      9082 MEMB     78       SAPE     H10R     HAL2     0.900000E-01   1.00800           0
      9083 MEMB     78       SAPE     H10S     HAL2     0.900000E-01   1.00800           0
      9084 MEMB     78       SAPE     C211     CEL1    -0.150000       12.0110           0
      9085 MEMB     78       SAPE     H11R     HEL1     0.150000       1.00800           0
      9086 MEMB     78       SAPE     C212     CEL1    -0.150000       12.0110           0
      9087 MEMB     78       SAPE     H12R     HEL1     0.150000       1.00800           0
      9088 MEMB     78       SAPE     C213     CTL2    -0.180000       12.0110           0
      9089 MEMB     78       SAPE     H13R     HAL2     0.900000E-01   1.00800           0
      9090 MEMB     78       SAPE     H13S     HAL2     0.900000E-01   1.00800           0
      9091 MEMB     78       SAPE     C214     CEL1    -0.150000       12.0110           0
      9092 MEMB     78       SAPE     H14R     HEL1     0.150000       1.00800           0
      9093 MEMB     78       SAPE     C215     CEL1    -0.150000       12.0110           0
      9094 MEMB     78       SAPE     H15R     HEL1     0.150000       1.00800           0
      9095 MEMB     78       SAPE     C216     CTL2    -0.180000       12.0110           0
      9096 MEMB     78       SAPE     H16R     HAL2     0.900000E-01   1.00800           0
      9097 MEMB     78       SAPE     H16S     HAL2     0.900000E-01   1.00800           0
      9098 MEMB     78       SAPE     C217     CTL2    -0.180000       12.0110           0
      9099 MEMB     78       SAPE     H17R     HAL2     0.900000E-01   1.00800           0
      9100 MEMB     78       SAPE     H17S     HAL2     0.900000E-01   1.00800           0
      9101 MEMB     78       SAPE     C218     CTL2    -0.180000       12.0110           0
      9102 MEMB     78       SAPE     H18R     HAL2     0.900000E-01   1.00800           0
      9103 MEMB     78       SAPE     H18S     HAL2     0.900000E-01   1.00800           0
      9104 MEMB     78       SAPE     C219     CTL2    -0.180000       12.0110           0
      9105 MEMB     78       SAPE     H19R     HAL2     0.900000E-01   1.00800           0
      9106 MEMB     78       SAPE     H19S     HAL2     0.900000E-01   1.00800           0
      9107 MEMB     78       SAPE     C220     CTL3    -0.270000       12.0110           0
      9108 MEMB     78       SAPE     H20R     HAL3     0.900000E-01   1.00800           0
      9109 MEMB     78       SAPE     H20S     HAL3     0.900000E-01   1.00800           0
      9110 MEMB     78       SAPE     H20T     HAL3     0.900000E-01   1.00800           0
      9111 MEMB     78       SAPE     C33      CTL2    -0.180000       12.0110           0
      9112 MEMB     78       SAPE     H3X      HAL2     0.900000E-01   1.00800           0
      9113 MEMB     78       SAPE     H3Y      HAL2     0.900000E-01   1.00800           0
      9114 MEMB     78       SAPE     C34      CTL2    -0.180000       12.0110           0
      9115 MEMB     78       SAPE     H4X      HAL2     0.900000E-01   1.00800           0
      9116 MEMB     78       SAPE     H4Y      HAL2     0.900000E-01   1.00800           0
      9117 MEMB     78       SAPE     C35      CTL2    -0.180000       12.0110           0
      9118 MEMB     78       SAPE     H5X      HAL2     0.900000E-01   1.00800           0
      9119 MEMB     78       SAPE     H5Y      HAL2     0.900000E-01   1.00800           0
      9120 MEMB     78       SAPE     C36      CTL2    -0.180000       12.0110           0
      9121 MEMB     78       SAPE     H6X      HAL2     0.900000E-01   1.00800           0
      9122 MEMB     78       SAPE     H6Y      HAL2     0.900000E-01   1.00800           0
      9123 MEMB     78       SAPE     C37      CTL2    -0.180000       12.0110           0
      9124 MEMB     78       SAPE     H7X      HAL2     0.900000E-01   1.00800           0
      9125 MEMB     78       SAPE     H7Y      HAL2     0.900000E-01   1.00800           0
      9126 MEMB     78       SAPE     C38      CTL2    -0.180000       12.0110           0
      9127 MEMB     78       SAPE     H8X      HAL2     0.900000E-01   1.00800           0
      9128 MEMB     78       SAPE     H8Y      HAL2     0.900000E-01   1.00800           0
      9129 MEMB     78       SAPE     C39      CTL2    -0.180000       12.0110           0
      9130 MEMB     78       SAPE     H9X      HAL2     0.900000E-01   1.00800           0
      9131 MEMB     78       SAPE     H9Y      HAL2     0.900000E-01   1.00800           0
      9132 MEMB     78       SAPE     C310     CTL2    -0.180000       12.0110           0
      9133 MEMB     78       SAPE     H10X     HAL2     0.900000E-01   1.00800           0
      9134 MEMB     78       SAPE     H10Y     HAL2     0.900000E-01   1.00800           0
      9135 MEMB     78       SAPE     C311     CTL2    -0.180000       12.0110           0
      9136 MEMB     78       SAPE     H11X     HAL2     0.900000E-01   1.00800           0
      9137 MEMB     78       SAPE     H11Y     HAL2     0.900000E-01   1.00800           0
      9138 MEMB     78       SAPE     C312     CTL2    -0.180000       12.0110           0
      9139 MEMB     78       SAPE     H12X     HAL2     0.900000E-01   1.00800           0
      9140 MEMB     78       SAPE     H12Y     HAL2     0.900000E-01   1.00800           0
      9141 MEMB     78       SAPE     C313     CTL2    -0.180000       12.0110           0
      9142 MEMB     78       SAPE     H13X     HAL2     0.900000E-01   1.00800           0
      9143 MEMB     78       SAPE     H13Y     HAL2     0.900000E-01   1.00800           0
      9144 MEMB     78       SAPE     C314     CTL2    -0.180000       12.0110           0
      9145 MEMB     78       SAPE     H14X     HAL2     0.900000E-01   1.00800           0
      9146 MEMB     78       SAPE     H14Y     HAL2     0.900000E-01   1.00800           0
      9147 MEMB     78       SAPE     C315     CTL2    -0.180000       12.0110           0
      9148 MEMB     78       SAPE     H15X     HAL2     0.900000E-01   1.00800           0
      9149 MEMB     78       SAPE     H15Y     HAL2     0.900000E-01   1.00800           0
      9150 MEMB     78       SAPE     C316     CTL2    -0.180000       12.0110           0
      9151 MEMB     78       SAPE     H16X     HAL2     0.900000E-01   1.00800           0
      9152 MEMB     78       SAPE     H16Y     HAL2     0.900000E-01   1.00800           0
      9153 MEMB     78       SAPE     C317     CTL2    -0.180000       12.0110           0
      9154 MEMB     78       SAPE     H17X     HAL2     0.900000E-01   1.00800           0
      9155 MEMB     78       SAPE     H17Y     HAL2     0.900000E-01   1.00800           0
      9156 MEMB     78       SAPE     C318     CTL3    -0.270000       12.0110           0
      9157 MEMB     78       SAPE     H18X     HAL3     0.900000E-01   1.00800           0
      9158 MEMB     78       SAPE     H18Y     HAL3     0.900000E-01   1.00800           0
      9159 MEMB     78       SAPE     H18Z     HAL3     0.900000E-01   1.00800           0
      9160 MEMB     79       CHL1     C3       CRL1     0.140000       12.0110           0
      9161 MEMB     79       CHL1     H3       HGA1     0.900000E-01   1.00800           0
      9162 MEMB     79       CHL1     O3       OHL     -0.660000       15.9994           0
      9163 MEMB     79       CHL1     H3'      HOL      0.430000       1.00800           0
      9164 MEMB     79       CHL1     C4       CRL2    -0.180000       12.0110           0
      9165 MEMB     79       CHL1     H4A      HGA2     0.900000E-01   1.00800           0
      9166 MEMB     79       CHL1     H4B      HGA2     0.900000E-01   1.00800           0
      9167 MEMB     79       CHL1     C5       CEL1      0.00000       12.0110           0
      9168 MEMB     79       CHL1     C6       CEL1    -0.150000       12.0110           0
      9169 MEMB     79       CHL1     H6       HEL1     0.150000       1.00800           0
      9170 MEMB     79       CHL1     C7       CRL2    -0.180000       12.0110           0
      9171 MEMB     79       CHL1     H7A      HGA2     0.900000E-01   1.00800           0
      9172 MEMB     79       CHL1     H7B      HGA2     0.900000E-01   1.00800           0
      9173 MEMB     79       CHL1     C8       CRL1    -0.900000E-01   12.0110           0
      9174 MEMB     79       CHL1     H8       HGA1     0.900000E-01   1.00800           0
      9175 MEMB     79       CHL1     C14      CRL1    -0.900000E-01   12.0110           0
      9176 MEMB     79       CHL1     H14      HGA1     0.900000E-01   1.00800           0
      9177 MEMB     79       CHL1     C15      CRL2    -0.180000       12.0110           0
      9178 MEMB     79       CHL1     H15A     HGA2     0.900000E-01   1.00800           0
      9179 MEMB     79       CHL1     H15B     HGA2     0.900000E-01   1.00800           0
      9180 MEMB     79       CHL1     C16      CRL2    -0.180000       12.0110           0
      9181 MEMB     79       CHL1     H16A     HGA2     0.900000E-01   1.00800           0
      9182 MEMB     79       CHL1     H16B     HGA2     0.900000E-01   1.00800           0
      9183 MEMB     79       CHL1     C17      CRL1    -0.900000E-01   12.0110           0
      9184 MEMB     79       CHL1     H17      HGA1     0.900000E-01   1.00800           0
      9185 MEMB     79       CHL1     C13      CRL1      0.00000       12.0110           0
      9186 MEMB     79       CHL1     C18      CTL3    -0.270000       12.0110           0
      9187 MEMB     79       CHL1     H18A     HAL3     0.900000E-01   1.00800           0
      9188 MEMB     79       CHL1     H18B     HAL3     0.900000E-01   1.00800           0
      9189 MEMB     79       CHL1     H18C     HAL3     0.900000E-01   1.00800           0
      9190 MEMB     79       CHL1     C12      CRL2    -0.180000       12.0110           0
      9191 MEMB     79       CHL1     H12A     HGA2     0.900000E-01   1.00800           0
      9192 MEMB     79       CHL1     H12B     HGA2     0.900000E-01   1.00800           0
      9193 MEMB     79       CHL1     C11      CRL2    -0.180000       12.0110           0
      9194 MEMB     79       CHL1     H11A     HGA2     0.900000E-01   1.00800           0
      9195 MEMB     79       CHL1     H11B     HGA2     0.900000E-01   1.00800           0
      9196 MEMB     79       CHL1     C9       CRL1    -0.900000E-01   12.0110           0
      9197 MEMB     79       CHL1     H9       HGA1     0.900000E-01   1.00800           0
      9198 MEMB     79       CHL1     C10      CRL1      0.00000       12.0110           0
      9199 MEMB     79       CHL1     C19      CTL3    -0.270000       12.0110           0
      9200 MEMB     79       CHL1     H19A     HAL3     0.900000E-01   1.00800           0
      9201 MEMB     79       CHL1     H19B     HAL3     0.900000E-01   1.00800           0
      9202 MEMB     79       CHL1     H19C     HAL3     0.900000E-01   1.00800           0
      9203 MEMB     79       CHL1     C1       CRL2    -0.180000       12.0110           0
      9204 MEMB     79       CHL1     H1A      HGA2     0.900000E-01   1.00800           0
      9205 MEMB     79       CHL1     H1B      HGA2     0.900000E-01   1.00800           0
      9206 MEMB     79       CHL1     C2       CRL2    -0.180000       12.0110           0
      9207 MEMB     79       CHL1     H2A      HGA2     0.900000E-01   1.00800           0
      9208 MEMB     79       CHL1     H2B      HGA2     0.900000E-01   1.00800           0
      9209 MEMB     79       CHL1     C20      CTL1    -0.900000E-01   12.0110           0
      9210 MEMB     79       CHL1     H20      HAL1     0.900000E-01   1.00800           0
      9211 MEMB     79       CHL1     C21      CTL3    -0.270000       12.0110           0
      9212 MEMB     79       CHL1     H21A     HAL3     0.900000E-01   1.00800           0
      9213 MEMB     79       CHL1     H21B     HAL3     0.900000E-01   1.00800           0
      9214 MEMB     79       CHL1     H21C     HAL3     0.900000E-01   1.00800           0
      9215 MEMB     79       CHL1     C22      CTL2    -0.180000       12.0110           0
      9216 MEMB     79       CHL1     H22A     HAL2     0.900000E-01   1.00800           0
      9217 MEMB     79       CHL1     H22B     HAL2     0.900000E-01   1.00800           0
      9218 MEMB     79       CHL1     C23      CTL2    -0.180000       12.0110           0
      9219 MEMB     79       CHL1     H23A     HAL2     0.900000E-01   1.00800           0
      9220 MEMB     79       CHL1     H23B     HAL2     0.900000E-01   1.00800           0
      9221 MEMB     79       CHL1     C24      CTL2    -0.180000       12.0110           0
      9222 MEMB     79       CHL1     H24A     HAL2     0.900000E-01   1.00800           0
      9223 MEMB     79       CHL1     H24B     HAL2     0.900000E-01   1.00800           0
      9224 MEMB     79       CHL1     C25      CTL1    -0.900000E-01   12.0110           0
      9225 MEMB     79       CHL1     H25      HAL1     0.900000E-01   1.00800           0
      9226 MEMB     79       CHL1     C26      CTL3    -0.270000       12.0110           0
      9227 MEMB     79       CHL1     H26A     HAL3     0.900000E-01   1.00800           0
      9228 MEMB     79       CHL1     H26B     HAL3     0.900000E-01   1.00800           0
      9229 MEMB     79       CHL1     H26C     HAL3     0.900000E-01   1.00800           0
      9230 MEMB     79       CHL1     C27      CTL3    -0.270000       12.0110           0
      9231 MEMB     79       CHL1     H27A     HAL3     0.900000E-01   1.00800           0
      9232 MEMB     79       CHL1     H27B     HAL3     0.900000E-01   1.00800           0
      9233 MEMB     79       CHL1     H27C     HAL3     0.900000E-01   1.00800           0
      9234 MEMB     80       CHL1     C3       CRL1     0.140000       12.0110           0
      9235 MEMB     80       CHL1     H3       HGA1     0.900000E-01   1.00800           0
      9236 MEMB     80       CHL1     O3       OHL     -0.660000       15.9994           0
      9237 MEMB     80       CHL1     H3'      HOL      0.430000       1.00800           0
      9238 MEMB     80       CHL1     C4       CRL2    -0.180000       12.0110           0
      9239 MEMB     80       CHL1     H4A      HGA2     0.900000E-01   1.00800           0
      9240 MEMB     80       CHL1     H4B      HGA2     0.900000E-01   1.00800           0
      9241 MEMB     80       CHL1     C5       CEL1      0.00000       12.0110           0
      9242 MEMB     80       CHL1     C6       CEL1    -0.150000       12.0110           0
      9243 MEMB     80       CHL1     H6       HEL1     0.150000       1.00800           0
      9244 MEMB     80       CHL1     C7       CRL2    -0.180000       12.0110           0
      9245 MEMB     80       CHL1     H7A      HGA2     0.900000E-01   1.00800           0
      9246 MEMB     80       CHL1     H7B      HGA2     0.900000E-01   1.00800           0
      9247 MEMB     80       CHL1     C8       CRL1    -0.900000E-01   12.0110           0
      9248 MEMB     80       CHL1     H8       HGA1     0.900000E-01   1.00800           0
      9249 MEMB     80       CHL1     C14      CRL1    -0.900000E-01   12.0110           0
      9250 MEMB     80       CHL1     H14      HGA1     0.900000E-01   1.00800           0
      9251 MEMB     80       CHL1     C15      CRL2    -0.180000       12.0110           0
      9252 MEMB     80       CHL1     H15A     HGA2     0.900000E-01   1.00800           0
      9253 MEMB     80       CHL1     H15B     HGA2     0.900000E-01   1.00800           0
      9254 MEMB     80       CHL1     C16      CRL2    -0.180000       12.0110           0
      9255 MEMB     80       CHL1     H16A     HGA2     0.900000E-01   1.00800           0
      9256 MEMB     80       CHL1     H16B     HGA2     0.900000E-01   1.00800           0
      9257 MEMB     80       CHL1     C17      CRL1    -0.900000E-01   12.0110           0
      9258 MEMB     80       CHL1     H17      HGA1     0.900000E-01   1.00800           0
      9259 MEMB     80       CHL1     C13      CRL1      0.00000       12.0110           0
      9260 MEMB     80       CHL1     C18      CTL3    -0.270000       12.0110           0
      9261 MEMB     80       CHL1     H18A     HAL3     0.900000E-01   1.00800           0
      9262 MEMB     80       CHL1     H18B     HAL3     0.900000E-01   1.00800           0
      9263 MEMB     80       CHL1     H18C     HAL3     0.900000E-01   1.00800           0
      9264 MEMB     80       CHL1     C12      CRL2    -0.180000       12.0110           0
      9265 MEMB     80       CHL1     H12A     HGA2     0.900000E-01   1.00800           0
      9266 MEMB     80       CHL1     H12B     HGA2     0.900000E-01   1.00800           0
      9267 MEMB     80       CHL1     C11      CRL2    -0.180000       12.0110           0
      9268 MEMB     80       CHL1     H11A     HGA2     0.900000E-01   1.00800           0
      9269 MEMB     80       CHL1     H11B     HGA2     0.900000E-01   1.00800           0
      9270 MEMB     80       CHL1     C9       CRL1    -0.900000E-01   12.0110           0
      9271 MEMB     80       CHL1     H9       HGA1     0.900000E-01   1.00800           0
      9272 MEMB     80       CHL1     C10      CRL1      0.00000       12.0110           0
      9273 MEMB     80       CHL1     C19      CTL3    -0.270000       12.0110           0
      9274 MEMB     80       CHL1     H19A     HAL3     0.900000E-01   1.00800           0
      9275 MEMB     80       CHL1     H19B     HAL3     0.900000E-01   1.00800           0
      9276 MEMB     80       CHL1     H19C     HAL3     0.900000E-01   1.00800           0
      9277 MEMB     80       CHL1     C1       CRL2    -0.180000       12.0110           0
      9278 MEMB     80       CHL1     H1A      HGA2     0.900000E-01   1.00800           0
      9279 MEMB     80       CHL1     H1B      HGA2     0.900000E-01   1.00800           0
      9280 MEMB     80       CHL1     C2       CRL2    -0.180000       12.0110           0
      9281 MEMB     80       CHL1     H2A      HGA2     0.900000E-01   1.00800           0
      9282 MEMB     80       CHL1     H2B      HGA2     0.900000E-01   1.00800           0
      9283 MEMB     80       CHL1     C20      CTL1    -0.900000E-01   12.0110           0
      9284 MEMB     80       CHL1     H20      HAL1     0.900000E-01   1.00800           0
      9285 MEMB     80       CHL1     C21      CTL3    -0.270000       12.0110           0
      9286 MEMB     80       CHL1     H21A     HAL3     0.900000E-01   1.00800           0
      9287 MEMB     80       CHL1     H21B     HAL3     0.900000E-01   1.00800           0
      9288 MEMB     80       CHL1     H21C     HAL3     0.900000E-01   1.00800           0
      9289 MEMB     80       CHL1     C22      CTL2    -0.180000       12.0110           0
      9290 MEMB     80       CHL1     H22A     HAL2     0.900000E-01   1.00800           0
      9291 MEMB     80       CHL1     H22B     HAL2     0.900000E-01   1.00800           0
      9292 MEMB     80       CHL1     C23      CTL2    -0.180000       12.0110           0
      9293 MEMB     80       CHL1     H23A     HAL2     0.900000E-01   1.00800           0
      9294 MEMB     80       CHL1     H23B     HAL2     0.900000E-01   1.00800           0
      9295 MEMB     80       CHL1     C24      CTL2    -0.180000       12.0110           0
      9296 MEMB     80       CHL1     H24A     HAL2     0.900000E-01   1.00800           0
      9297 MEMB     80       CHL1     H24B     HAL2     0.900000E-01   1.00800           0
      9298 MEMB     80       CHL1     C25      CTL1    -0.900000E-01   12.0110           0
      9299 MEMB     80       CHL1     H25      HAL1     0.900000E-01   1.00800           0
      9300 MEMB     80       CHL1     C26      CTL3    -0.270000       12.0110           0
      9301 MEMB     80       CHL1     H26A     HAL3     0.900000E-01   1.00800           0
      9302 MEMB     80       CHL1     H26B     HAL3     0.900000E-01   1.00800           0
      9303 MEMB     80       CHL1     H26C     HAL3     0.900000E-01   1.00800           0
      9304 MEMB     80       CHL1     C27      CTL3    -0.270000       12.0110           0
      9305 MEMB     80       CHL1     H27A     HAL3     0.900000E-01   1.00800           0
      9306 MEMB     80       CHL1     H27B     HAL3     0.900000E-01   1.00800           0
      9307 MEMB     80       CHL1     H27C     HAL3     0.900000E-01   1.00800           0
      9308 MEMB     81       SAPI     C12      CC3161   0.140000       12.0110           0
      9309 MEMB     81       SAPI     H2       HCA1     0.900000E-01   1.00800           0
      9310 MEMB     81       SAPI     O2       OC311   -0.650000       15.9994           0
      9311 MEMB     81       SAPI     HO2      HCP1     0.420000       1.00800           0
      9312 MEMB     81       SAPI     C13      CC3161   0.140000       12.0110           0
      9313 MEMB     81       SAPI     H3       HCA1     0.900000E-01   1.00800           0
      9314 MEMB     81       SAPI     O3       OC311   -0.650000       15.9994           0
      9315 MEMB     81       SAPI     HO3      HCP1     0.420000       1.00800           0
      9316 MEMB     81       SAPI     C14      CC3161   0.140000       12.0110           0
      9317 MEMB     81       SAPI     H4       HCA1     0.900000E-01   1.00800           0
      9318 MEMB     81       SAPI     O4       OC311   -0.650000       15.9994           0
      9319 MEMB     81       SAPI     HO4      HCP1     0.420000       1.00800           0
      9320 MEMB     81       SAPI     C15      CC3161   0.140000       12.0110           0
      9321 MEMB     81       SAPI     H5       HCA1     0.900000E-01   1.00800           0
      9322 MEMB     81       SAPI     O5       OC311   -0.650000       15.9994           0
      9323 MEMB     81       SAPI     HO5      HCP1     0.420000       1.00800           0
      9324 MEMB     81       SAPI     C16      CC3161   0.140000       12.0110           0
      9325 MEMB     81       SAPI     H6       HCA1     0.900000E-01   1.00800           0
      9326 MEMB     81       SAPI     O6       OC311   -0.650000       15.9994           0
      9327 MEMB     81       SAPI     HO6      HCP1     0.420000       1.00800           0
      9328 MEMB     81       SAPI     C11      CC3161  -0.800000E-01   12.0110           0
      9329 MEMB     81       SAPI     H1       HCA1     0.900000E-01   1.00800           0
      9330 MEMB     81       SAPI     P        PL        1.59000       30.9740           0
      9331 MEMB     81       SAPI     O13      O2L     -0.780000       15.9994           0
      9332 MEMB     81       SAPI     O14      O2L     -0.780000       15.9994           0
      9333 MEMB     81       SAPI     O12      OC30P   -0.570000       15.9994           0
      9334 MEMB     81       SAPI     O11      OSLP    -0.570000       15.9994           0
      9335 MEMB     81       SAPI     C1       CTL2    -0.800000E-01   12.0110           0
      9336 MEMB     81       SAPI     HA       HAL2     0.900000E-01   1.00800           0
      9337 MEMB     81       SAPI     HB       HAL2     0.900000E-01   1.00800           0
      9338 MEMB     81       SAPI     C2       CTL1     0.170000       12.0110           0
      9339 MEMB     81       SAPI     HS       HAL1     0.900000E-01   1.00800           0
      9340 MEMB     81       SAPI     O21      OSL     -0.490000       15.9994           0
      9341 MEMB     81       SAPI     C21      CL       0.900000       12.0110           0
      9342 MEMB     81       SAPI     O22      OBL     -0.630000       15.9994           0
      9343 MEMB     81       SAPI     C22      CTL2    -0.220000       12.0110           0
      9344 MEMB     81       SAPI     H2R      HAL2     0.900000E-01   1.00800           0
      9345 MEMB     81       SAPI     H2S      HAL2     0.900000E-01   1.00800           0
      9346 MEMB     81       SAPI     C3       CTL2     0.800000E-01   12.0110           0
      9347 MEMB     81       SAPI     HX       HAL2     0.900000E-01   1.00800           0
      9348 MEMB     81       SAPI     HY       HAL2     0.900000E-01   1.00800           0
      9349 MEMB     81       SAPI     O31      OSL     -0.490000       15.9994           0
      9350 MEMB     81       SAPI     C31      CL       0.900000       12.0110           0
      9351 MEMB     81       SAPI     O32      OBL     -0.630000       15.9994           0
      9352 MEMB     81       SAPI     C32      CTL2    -0.220000       12.0110           0
      9353 MEMB     81       SAPI     H2X      HAL2     0.900000E-01   1.00800           0
      9354 MEMB     81       SAPI     H2Y      HAL2     0.900000E-01   1.00800           0
      9355 MEMB     81       SAPI     C23      CTL2    -0.180000       12.0110           0
      9356 MEMB     81       SAPI     H3R      HAL2     0.900000E-01   1.00800           0
      9357 MEMB     81       SAPI     H3S      HAL2     0.900000E-01   1.00800           0
      9358 MEMB     81       SAPI     C24      CTL2    -0.180000       12.0110           0
      9359 MEMB     81       SAPI     H4R      HAL2     0.900000E-01   1.00800           0
      9360 MEMB     81       SAPI     H4S      HAL2     0.900000E-01   1.00800           0
      9361 MEMB     81       SAPI     C25      CEL1    -0.150000       12.0110           0
      9362 MEMB     81       SAPI     H5R      HEL1     0.150000       1.00800           0
      9363 MEMB     81       SAPI     C26      CEL1    -0.150000       12.0110           0
      9364 MEMB     81       SAPI     H6R      HEL1     0.150000       1.00800           0
      9365 MEMB     81       SAPI     C27      CTL2    -0.180000       12.0110           0
      9366 MEMB     81       SAPI     H7R      HAL2     0.900000E-01   1.00800           0
      9367 MEMB     81       SAPI     H7S      HAL2     0.900000E-01   1.00800           0
      9368 MEMB     81       SAPI     C28      CEL1    -0.150000       12.0110           0
      9369 MEMB     81       SAPI     H8R      HEL1     0.150000       1.00800           0
      9370 MEMB     81       SAPI     C29      CEL1    -0.150000       12.0110           0
      9371 MEMB     81       SAPI     H9R      HEL1     0.150000       1.00800           0
      9372 MEMB     81       SAPI     C210     CTL2    -0.180000       12.0110           0
      9373 MEMB     81       SAPI     H10R     HAL2     0.900000E-01   1.00800           0
      9374 MEMB     81       SAPI     H10S     HAL2     0.900000E-01   1.00800           0
      9375 MEMB     81       SAPI     C211     CEL1    -0.150000       12.0110           0
      9376 MEMB     81       SAPI     H11R     HEL1     0.150000       1.00800           0
      9377 MEMB     81       SAPI     C212     CEL1    -0.150000       12.0110           0
      9378 MEMB     81       SAPI     H12R     HEL1     0.150000       1.00800           0
      9379 MEMB     81       SAPI     C213     CTL2    -0.180000       12.0110           0
      9380 MEMB     81       SAPI     H13R     HAL2     0.900000E-01   1.00800           0
      9381 MEMB     81       SAPI     H13S     HAL2     0.900000E-01   1.00800           0
      9382 MEMB     81       SAPI     C214     CEL1    -0.150000       12.0110           0
      9383 MEMB     81       SAPI     H14R     HEL1     0.150000       1.00800           0
      9384 MEMB     81       SAPI     C215     CEL1    -0.150000       12.0110           0
      9385 MEMB     81       SAPI     H15R     HEL1     0.150000       1.00800           0
      9386 MEMB     81       SAPI     C216     CTL2    -0.180000       12.0110           0
      9387 MEMB     81       SAPI     H16R     HAL2     0.900000E-01   1.00800           0
      9388 MEMB     81       SAPI     H16S     HAL2     0.900000E-01   1.00800           0
      9389 MEMB     81       SAPI     C217     CTL2    -0.180000       12.0110           0
      9390 MEMB     81       SAPI     H17R     HAL2     0.900000E-01   1.00800           0
      9391 MEMB     81       SAPI     H17S     HAL2     0.900000E-01   1.00800           0
      9392 MEMB     81       SAPI     C218     CTL2    -0.180000       12.0110           0
      9393 MEMB     81       SAPI     H18R     HAL2     0.900000E-01   1.00800           0
      9394 MEMB     81       SAPI     H18S     HAL2     0.900000E-01   1.00800           0
      9395 MEMB     81       SAPI     C219     CTL2    -0.180000       12.0110           0
      9396 MEMB     81       SAPI     H19R     HAL2     0.900000E-01   1.00800           0
      9397 MEMB     81       SAPI     H19S     HAL2     0.900000E-01   1.00800           0
      9398 MEMB     81       SAPI     C220     CTL3    -0.270000       12.0110           0
      9399 MEMB     81       SAPI     H20R     HAL3     0.900000E-01   1.00800           0
      9400 MEMB     81       SAPI     H20S     HAL3     0.900000E-01   1.00800           0
      9401 MEMB     81       SAPI     H20T     HAL3     0.900000E-01   1.00800           0
      9402 MEMB     81       SAPI     C33      CTL2    -0.180000       12.0110           0
      9403 MEMB     81       SAPI     H3X      HAL2     0.900000E-01   1.00800           0
      9404 MEMB     81       SAPI     H3Y      HAL2     0.900000E-01   1.00800           0
      9405 MEMB     81       SAPI     C34      CTL2    -0.180000       12.0110           0
      9406 MEMB     81       SAPI     H4X      HAL2     0.900000E-01   1.00800           0
      9407 MEMB     81       SAPI     H4Y      HAL2     0.900000E-01   1.00800           0
      9408 MEMB     81       SAPI     C35      CTL2    -0.180000       12.0110           0
      9409 MEMB     81       SAPI     H5X      HAL2     0.900000E-01   1.00800           0
      9410 MEMB     81       SAPI     H5Y      HAL2     0.900000E-01   1.00800           0
      9411 MEMB     81       SAPI     C36      CTL2    -0.180000       12.0110           0
      9412 MEMB     81       SAPI     H6X      HAL2     0.900000E-01   1.00800           0
      9413 MEMB     81       SAPI     H6Y      HAL2     0.900000E-01   1.00800           0
      9414 MEMB     81       SAPI     C37      CTL2    -0.180000       12.0110           0
      9415 MEMB     81       SAPI     H7X      HAL2     0.900000E-01   1.00800           0
      9416 MEMB     81       SAPI     H7Y      HAL2     0.900000E-01   1.00800           0
      9417 MEMB     81       SAPI     C38      CTL2    -0.180000       12.0110           0
      9418 MEMB     81       SAPI     H8X      HAL2     0.900000E-01   1.00800           0
      9419 MEMB     81       SAPI     H8Y      HAL2     0.900000E-01   1.00800           0
      9420 MEMB     81       SAPI     C39      CTL2    -0.180000       12.0110           0
      9421 MEMB     81       SAPI     H9X      HAL2     0.900000E-01   1.00800           0
      9422 MEMB     81       SAPI     H9Y      HAL2     0.900000E-01   1.00800           0
      9423 MEMB     81       SAPI     C310     CTL2    -0.180000       12.0110           0
      9424 MEMB     81       SAPI     H10X     HAL2     0.900000E-01   1.00800           0
      9425 MEMB     81       SAPI     H10Y     HAL2     0.900000E-01   1.00800           0
      9426 MEMB     81       SAPI     C311     CTL2    -0.180000       12.0110           0
      9427 MEMB     81       SAPI     H11X     HAL2     0.900000E-01   1.00800           0
      9428 MEMB     81       SAPI     H11Y     HAL2     0.900000E-01   1.00800           0
      9429 MEMB     81       SAPI     C312     CTL2    -0.180000       12.0110           0
      9430 MEMB     81       SAPI     H12X     HAL2     0.900000E-01   1.00800           0
      9431 MEMB     81       SAPI     H12Y     HAL2     0.900000E-01   1.00800           0
      9432 MEMB     81       SAPI     C313     CTL2    -0.180000       12.0110           0
      9433 MEMB     81       SAPI     H13X     HAL2     0.900000E-01   1.00800           0
      9434 MEMB     81       SAPI     H13Y     HAL2     0.900000E-01   1.00800           0
      9435 MEMB     81       SAPI     C314     CTL2    -0.180000       12.0110           0
      9436 MEMB     81       SAPI     H14X     HAL2     0.900000E-01   1.00800           0
      9437 MEMB     81       SAPI     H14Y     HAL2     0.900000E-01   1.00800           0
      9438 MEMB     81       SAPI     C315     CTL2    -0.180000       12.0110           0
      9439 MEMB     81       SAPI     H15X     HAL2     0.900000E-01   1.00800           0
      9440 MEMB     81       SAPI     H15Y     HAL2     0.900000E-01   1.00800           0
      9441 MEMB     81       SAPI     C316     CTL2    -0.180000       12.0110           0
      9442 MEMB     81       SAPI     H16X     HAL2     0.900000E-01   1.00800           0
      9443 MEMB     81       SAPI     H16Y     HAL2     0.900000E-01   1.00800           0
      9444 MEMB     81       SAPI     C317     CTL2    -0.180000       12.0110           0
      9445 MEMB     81       SAPI     H17X     HAL2     0.900000E-01   1.00800           0
      9446 MEMB     81       SAPI     H17Y     HAL2     0.900000E-01   1.00800           0
      9447 MEMB     81       SAPI     C318     CTL3    -0.270000       12.0110           0
      9448 MEMB     81       SAPI     H18X     HAL3     0.900000E-01   1.00800           0
      9449 MEMB     81       SAPI     H18Y     HAL3     0.900000E-01   1.00800           0
      9450 MEMB     81       SAPI     H18Z     HAL3     0.900000E-01   1.00800           0
      9451 MEMB     82       CHL1     C3       CRL1     0.140000       12.0110           0
      9452 MEMB     82       CHL1     H3       HGA1     0.900000E-01   1.00800           0
      9453 MEMB     82       CHL1     O3       OHL     -0.660000       15.9994           0
      9454 MEMB     82       CHL1     H3'      HOL      0.430000       1.00800           0
      9455 MEMB     82       CHL1     C4       CRL2    -0.180000       12.0110           0
      9456 MEMB     82       CHL1     H4A      HGA2     0.900000E-01   1.00800           0
      9457 MEMB     82       CHL1     H4B      HGA2     0.900000E-01   1.00800           0
      9458 MEMB     82       CHL1     C5       CEL1      0.00000       12.0110           0
      9459 MEMB     82       CHL1     C6       CEL1    -0.150000       12.0110           0
      9460 MEMB     82       CHL1     H6       HEL1     0.150000       1.00800           0
      9461 MEMB     82       CHL1     C7       CRL2    -0.180000       12.0110           0
      9462 MEMB     82       CHL1     H7A      HGA2     0.900000E-01   1.00800           0
      9463 MEMB     82       CHL1     H7B      HGA2     0.900000E-01   1.00800           0
      9464 MEMB     82       CHL1     C8       CRL1    -0.900000E-01   12.0110           0
      9465 MEMB     82       CHL1     H8       HGA1     0.900000E-01   1.00800           0
      9466 MEMB     82       CHL1     C14      CRL1    -0.900000E-01   12.0110           0
      9467 MEMB     82       CHL1     H14      HGA1     0.900000E-01   1.00800           0
      9468 MEMB     82       CHL1     C15      CRL2    -0.180000       12.0110           0
      9469 MEMB     82       CHL1     H15A     HGA2     0.900000E-01   1.00800           0
      9470 MEMB     82       CHL1     H15B     HGA2     0.900000E-01   1.00800           0
      9471 MEMB     82       CHL1     C16      CRL2    -0.180000       12.0110           0
      9472 MEMB     82       CHL1     H16A     HGA2     0.900000E-01   1.00800           0
      9473 MEMB     82       CHL1     H16B     HGA2     0.900000E-01   1.00800           0
      9474 MEMB     82       CHL1     C17      CRL1    -0.900000E-01   12.0110           0
      9475 MEMB     82       CHL1     H17      HGA1     0.900000E-01   1.00800           0
      9476 MEMB     82       CHL1     C13      CRL1      0.00000       12.0110           0
      9477 MEMB     82       CHL1     C18      CTL3    -0.270000       12.0110           0
      9478 MEMB     82       CHL1     H18A     HAL3     0.900000E-01   1.00800           0
      9479 MEMB     82       CHL1     H18B     HAL3     0.900000E-01   1.00800           0
      9480 MEMB     82       CHL1     H18C     HAL3     0.900000E-01   1.00800           0
      9481 MEMB     82       CHL1     C12      CRL2    -0.180000       12.0110           0
      9482 MEMB     82       CHL1     H12A     HGA2     0.900000E-01   1.00800           0
      9483 MEMB     82       CHL1     H12B     HGA2     0.900000E-01   1.00800           0
      9484 MEMB     82       CHL1     C11      CRL2    -0.180000       12.0110           0
      9485 MEMB     82       CHL1     H11A     HGA2     0.900000E-01   1.00800           0
      9486 MEMB     82       CHL1     H11B     HGA2     0.900000E-01   1.00800           0
      9487 MEMB     82       CHL1     C9       CRL1    -0.900000E-01   12.0110           0
      9488 MEMB     82       CHL1     H9       HGA1     0.900000E-01   1.00800           0
      9489 MEMB     82       CHL1     C10      CRL1      0.00000       12.0110           0
      9490 MEMB     82       CHL1     C19      CTL3    -0.270000       12.0110           0
      9491 MEMB     82       CHL1     H19A     HAL3     0.900000E-01   1.00800           0
      9492 MEMB     82       CHL1     H19B     HAL3     0.900000E-01   1.00800           0
      9493 MEMB     82       CHL1     H19C     HAL3     0.900000E-01   1.00800           0
      9494 MEMB     82       CHL1     C1       CRL2    -0.180000       12.0110           0
      9495 MEMB     82       CHL1     H1A      HGA2     0.900000E-01   1.00800           0
      9496 MEMB     82       CHL1     H1B      HGA2     0.900000E-01   1.00800           0
      9497 MEMB     82       CHL1     C2       CRL2    -0.180000       12.0110           0
      9498 MEMB     82       CHL1     H2A      HGA2     0.900000E-01   1.00800           0
      9499 MEMB     82       CHL1     H2B      HGA2     0.900000E-01   1.00800           0
      9500 MEMB     82       CHL1     C20      CTL1    -0.900000E-01   12.0110           0
      9501 MEMB     82       CHL1     H20      HAL1     0.900000E-01   1.00800           0
      9502 MEMB     82       CHL1     C21      CTL3    -0.270000       12.0110           0
      9503 MEMB     82       CHL1     H21A     HAL3     0.900000E-01   1.00800           0
      9504 MEMB     82       CHL1     H21B     HAL3     0.900000E-01   1.00800           0
      9505 MEMB     82       CHL1     H21C     HAL3     0.900000E-01   1.00800           0
      9506 MEMB     82       CHL1     C22      CTL2    -0.180000       12.0110           0
      9507 MEMB     82       CHL1     H22A     HAL2     0.900000E-01   1.00800           0
      9508 MEMB     82       CHL1     H22B     HAL2     0.900000E-01   1.00800           0
      9509 MEMB     82       CHL1     C23      CTL2    -0.180000       12.0110           0
      9510 MEMB     82       CHL1     H23A     HAL2     0.900000E-01   1.00800           0
      9511 MEMB     82       CHL1     H23B     HAL2     0.900000E-01   1.00800           0
      9512 MEMB     82       CHL1     C24      CTL2    -0.180000       12.0110           0
      9513 MEMB     82       CHL1     H24A     HAL2     0.900000E-01   1.00800           0
      9514 MEMB     82       CHL1     H24B     HAL2     0.900000E-01   1.00800           0
      9515 MEMB     82       CHL1     C25      CTL1    -0.900000E-01   12.0110           0
      9516 MEMB     82       CHL1     H25      HAL1     0.900000E-01   1.00800           0
      9517 MEMB     82       CHL1     C26      CTL3    -0.270000       12.0110           0
      9518 MEMB     82       CHL1     H26A     HAL3     0.900000E-01   1.00800           0
      9519 MEMB     82       CHL1     H26B     HAL3     0.900000E-01   1.00800           0
      9520 MEMB     82       CHL1     H26C     HAL3     0.900000E-01   1.00800           0
      9521 MEMB     82       CHL1     C27      CTL3    -0.270000       12.0110           0
      9522 MEMB     82       CHL1     H27A     HAL3     0.900000E-01   1.00800           0
      9523 MEMB     82       CHL1     H27B     HAL3     0.900000E-01   1.00800           0
      9524 MEMB     82       CHL1     H27C     HAL3     0.900000E-01   1.00800           0
      9525 MEMB     83       SOPE     N        NH3L    -0.300000       14.0070           0
      9526 MEMB     83       SOPE     HN1      HCL      0.330000       1.00800           0
      9527 MEMB     83       SOPE     HN2      HCL      0.330000       1.00800           0
      9528 MEMB     83       SOPE     HN3      HCL      0.330000       1.00800           0
      9529 MEMB     83       SOPE     C12      CTL2     0.130000       12.0110           0
      9530 MEMB     83       SOPE     H12A     HAL2     0.900000E-01   1.00800           0
      9531 MEMB     83       SOPE     H12B     HAL2     0.900000E-01   1.00800           0
      9532 MEMB     83       SOPE     C11      CTL2    -0.800000E-01   12.0110           0
      9533 MEMB     83       SOPE     H11A     HAL2     0.900000E-01   1.00800           0
      9534 MEMB     83       SOPE     H11B     HAL2     0.900000E-01   1.00800           0
      9535 MEMB     83       SOPE     P        PL        1.50000       30.9740           0
      9536 MEMB     83       SOPE     O13      O2L     -0.780000       15.9994           0
      9537 MEMB     83       SOPE     O14      O2L     -0.780000       15.9994           0
      9538 MEMB     83       SOPE     O12      OSLP    -0.570000       15.9994           0
      9539 MEMB     83       SOPE     O11      OSLP    -0.570000       15.9994           0
      9540 MEMB     83       SOPE     C1       CTL2    -0.800000E-01   12.0110           0
      9541 MEMB     83       SOPE     HA       HAL2     0.900000E-01   1.00800           0
      9542 MEMB     83       SOPE     HB       HAL2     0.900000E-01   1.00800           0
      9543 MEMB     83       SOPE     C2       CTL1     0.170000       12.0110           0
      9544 MEMB     83       SOPE     HS       HAL1     0.900000E-01   1.00800           0
      9545 MEMB     83       SOPE     O21      OSL     -0.490000       15.9994           0
      9546 MEMB     83       SOPE     C21      CL       0.900000       12.0110           0
      9547 MEMB     83       SOPE     O22      OBL     -0.630000       15.9994           0
      9548 MEMB     83       SOPE     C22      CTL2    -0.220000       12.0110           0
      9549 MEMB     83       SOPE     H2R      HAL2     0.900000E-01   1.00800           0
      9550 MEMB     83       SOPE     H2S      HAL2     0.900000E-01   1.00800           0
      9551 MEMB     83       SOPE     C3       CTL2     0.800000E-01   12.0110           0
      9552 MEMB     83       SOPE     HX       HAL2     0.900000E-01   1.00800           0
      9553 MEMB     83       SOPE     HY       HAL2     0.900000E-01   1.00800           0
      9554 MEMB     83       SOPE     O31      OSL     -0.490000       15.9994           0
      9555 MEMB     83       SOPE     C31      CL       0.900000       12.0110           0
      9556 MEMB     83       SOPE     O32      OBL     -0.630000       15.9994           0
      9557 MEMB     83       SOPE     C32      CTL2    -0.220000       12.0110           0
      9558 MEMB     83       SOPE     H2X      HAL2     0.900000E-01   1.00800           0
      9559 MEMB     83       SOPE     H2Y      HAL2     0.900000E-01   1.00800           0
      9560 MEMB     83       SOPE     C23      CTL2    -0.180000       12.0110           0
      9561 MEMB     83       SOPE     H3R      HAL2     0.900000E-01   1.00800           0
      9562 MEMB     83       SOPE     H3S      HAL2     0.900000E-01   1.00800           0
      9563 MEMB     83       SOPE     C24      CTL2    -0.180000       12.0110           0
      9564 MEMB     83       SOPE     H4R      HAL2     0.900000E-01   1.00800           0
      9565 MEMB     83       SOPE     H4S      HAL2     0.900000E-01   1.00800           0
      9566 MEMB     83       SOPE     C25      CTL2    -0.180000       12.0110           0
      9567 MEMB     83       SOPE     H5R      HAL2     0.900000E-01   1.00800           0
      9568 MEMB     83       SOPE     H5S      HAL2     0.900000E-01   1.00800           0
      9569 MEMB     83       SOPE     C26      CTL2    -0.180000       12.0110           0
      9570 MEMB     83       SOPE     H6R      HAL2     0.900000E-01   1.00800           0
      9571 MEMB     83       SOPE     H6S      HAL2     0.900000E-01   1.00800           0
      9572 MEMB     83       SOPE     C27      CTL2    -0.180000       12.0110           0
      9573 MEMB     83       SOPE     H7R      HAL2     0.900000E-01   1.00800           0
      9574 MEMB     83       SOPE     H7S      HAL2     0.900000E-01   1.00800           0
      9575 MEMB     83       SOPE     C28      CTL2    -0.180000       12.0110           0
      9576 MEMB     83       SOPE     H8R      HAL2     0.900000E-01   1.00800           0
      9577 MEMB     83       SOPE     H8S      HAL2     0.900000E-01   1.00800           0
      9578 MEMB     83       SOPE     C29      CEL1    -0.150000       12.0110           0
      9579 MEMB     83       SOPE     H91      HEL1     0.150000       1.00800           0
      9580 MEMB     83       SOPE     C210     CEL1    -0.150000       12.0110           0
      9581 MEMB     83       SOPE     H101     HEL1     0.150000       1.00800           0
      9582 MEMB     83       SOPE     C211     CTL2    -0.180000       12.0110           0
      9583 MEMB     83       SOPE     H11R     HAL2     0.900000E-01   1.00800           0
      9584 MEMB     83       SOPE     H11S     HAL2     0.900000E-01   1.00800           0
      9585 MEMB     83       SOPE     C212     CTL2    -0.180000       12.0110           0
      9586 MEMB     83       SOPE     H12R     HAL2     0.900000E-01   1.00800           0
      9587 MEMB     83       SOPE     H12S     HAL2     0.900000E-01   1.00800           0
      9588 MEMB     83       SOPE     C213     CTL2    -0.180000       12.0110           0
      9589 MEMB     83       SOPE     H13R     HAL2     0.900000E-01   1.00800           0
      9590 MEMB     83       SOPE     H13S     HAL2     0.900000E-01   1.00800           0
      9591 MEMB     83       SOPE     C214     CTL2    -0.180000       12.0110           0
      9592 MEMB     83       SOPE     H14R     HAL2     0.900000E-01   1.00800           0
      9593 MEMB     83       SOPE     H14S     HAL2     0.900000E-01   1.00800           0
      9594 MEMB     83       SOPE     C215     CTL2    -0.180000       12.0110           0
      9595 MEMB     83       SOPE     H15R     HAL2     0.900000E-01   1.00800           0
      9596 MEMB     83       SOPE     H15S     HAL2     0.900000E-01   1.00800           0
      9597 MEMB     83       SOPE     C216     CTL2    -0.180000       12.0110           0
      9598 MEMB     83       SOPE     H16R     HAL2     0.900000E-01   1.00800           0
      9599 MEMB     83       SOPE     H16S     HAL2     0.900000E-01   1.00800           0
      9600 MEMB     83       SOPE     C217     CTL2    -0.180000       12.0110           0
      9601 MEMB     83       SOPE     H17R     HAL2     0.900000E-01   1.00800           0
      9602 MEMB     83       SOPE     H17S     HAL2     0.900000E-01   1.00800           0
      9603 MEMB     83       SOPE     C218     CTL3    -0.270000       12.0110           0
      9604 MEMB     83       SOPE     H18R     HAL3     0.900000E-01   1.00800           0
      9605 MEMB     83       SOPE     H18S     HAL3     0.900000E-01   1.00800           0
      9606 MEMB     83       SOPE     H18T     HAL3     0.900000E-01   1.00800           0
      9607 MEMB     83       SOPE     C33      CTL2    -0.180000       12.0110           0
      9608 MEMB     83       SOPE     H3X      HAL2     0.900000E-01   1.00800           0
      9609 MEMB     83       SOPE     H3Y      HAL2     0.900000E-01   1.00800           0
      9610 MEMB     83       SOPE     C34      CTL2    -0.180000       12.0110           0
      9611 MEMB     83       SOPE     H4X      HAL2     0.900000E-01   1.00800           0
      9612 MEMB     83       SOPE     H4Y      HAL2     0.900000E-01   1.00800           0
      9613 MEMB     83       SOPE     C35      CTL2    -0.180000       12.0110           0
      9614 MEMB     83       SOPE     H5X      HAL2     0.900000E-01   1.00800           0
      9615 MEMB     83       SOPE     H5Y      HAL2     0.900000E-01   1.00800           0
      9616 MEMB     83       SOPE     C36      CTL2    -0.180000       12.0110           0
      9617 MEMB     83       SOPE     H6X      HAL2     0.900000E-01   1.00800           0
      9618 MEMB     83       SOPE     H6Y      HAL2     0.900000E-01   1.00800           0
      9619 MEMB     83       SOPE     C37      CTL2    -0.180000       12.0110           0
      9620 MEMB     83       SOPE     H7X      HAL2     0.900000E-01   1.00800           0
      9621 MEMB     83       SOPE     H7Y      HAL2     0.900000E-01   1.00800           0
      9622 MEMB     83       SOPE     C38      CTL2    -0.180000       12.0110           0
      9623 MEMB     83       SOPE     H8X      HAL2     0.900000E-01   1.00800           0
      9624 MEMB     83       SOPE     H8Y      HAL2     0.900000E-01   1.00800           0
      9625 MEMB     83       SOPE     C39      CTL2    -0.180000       12.0110           0
      9626 MEMB     83       SOPE     H9X      HAL2     0.900000E-01   1.00800           0
      9627 MEMB     83       SOPE     H9Y      HAL2     0.900000E-01   1.00800           0
      9628 MEMB     83       SOPE     C310     CTL2    -0.180000       12.0110           0
      9629 MEMB     83       SOPE     H10X     HAL2     0.900000E-01   1.00800           0
      9630 MEMB     83       SOPE     H10Y     HAL2     0.900000E-01   1.00800           0
      9631 MEMB     83       SOPE     C311     CTL2    -0.180000       12.0110           0
      9632 MEMB     83       SOPE     H11X     HAL2     0.900000E-01   1.00800           0
      9633 MEMB     83       SOPE     H11Y     HAL2     0.900000E-01   1.00800           0
      9634 MEMB     83       SOPE     C312     CTL2    -0.180000       12.0110           0
      9635 MEMB     83       SOPE     H12X     HAL2     0.900000E-01   1.00800           0
      9636 MEMB     83       SOPE     H12Y     HAL2     0.900000E-01   1.00800           0
      9637 MEMB     83       SOPE     C313     CTL2    -0.180000       12.0110           0
      9638 MEMB     83       SOPE     H13X     HAL2     0.900000E-01   1.00800           0
      9639 MEMB     83       SOPE     H13Y     HAL2     0.900000E-01   1.00800           0
      9640 MEMB     83       SOPE     C314     CTL2    -0.180000       12.0110           0
      9641 MEMB     83       SOPE     H14X     HAL2     0.900000E-01   1.00800           0
      9642 MEMB     83       SOPE     H14Y     HAL2     0.900000E-01   1.00800           0
      9643 MEMB     83       SOPE     C315     CTL2    -0.180000       12.0110           0
      9644 MEMB     83       SOPE     H15X     HAL2     0.900000E-01   1.00800           0
      9645 MEMB     83       SOPE     H15Y     HAL2     0.900000E-01   1.00800           0
      9646 MEMB     83       SOPE     C316     CTL2    -0.180000       12.0110           0
      9647 MEMB     83       SOPE     H16X     HAL2     0.900000E-01   1.00800           0
      9648 MEMB     83       SOPE     H16Y     HAL2     0.900000E-01   1.00800           0
      9649 MEMB     83       SOPE     C317     CTL2    -0.180000       12.0110           0
      9650 MEMB     83       SOPE     H17X     HAL2     0.900000E-01   1.00800           0
      9651 MEMB     83       SOPE     H17Y     HAL2     0.900000E-01   1.00800           0
      9652 MEMB     83       SOPE     C318     CTL3    -0.270000       12.0110           0
      9653 MEMB     83       SOPE     H18X     HAL3     0.900000E-01   1.00800           0
      9654 MEMB     83       SOPE     H18Y     HAL3     0.900000E-01   1.00800           0
      9655 MEMB     83       SOPE     H18Z     HAL3     0.900000E-01   1.00800           0
      9656 MEMB     84       OSM      N        NTL     -0.600000       14.0070           0
      9657 MEMB     84       OSM      C15      CTL5    -0.350000       12.0110           0
      9658 MEMB     84       OSM      H15A     HL       0.250000       1.00800           0
      9659 MEMB     84       OSM      H15B     HL       0.250000       1.00800           0
      9660 MEMB     84       OSM      H15C     HL       0.250000       1.00800           0
      9661 MEMB     84       OSM      C14      CTL5    -0.350000       12.0110           0
      9662 MEMB     84       OSM      H14A     HL       0.250000       1.00800           0
      9663 MEMB     84       OSM      H14B     HL       0.250000       1.00800           0
      9664 MEMB     84       OSM      H14C     HL       0.250000       1.00800           0
      9665 MEMB     84       OSM      C13      CTL5    -0.350000       12.0110           0
      9666 MEMB     84       OSM      H13A     HL       0.250000       1.00800           0
      9667 MEMB     84       OSM      H13B     HL       0.250000       1.00800           0
      9668 MEMB     84       OSM      H13C     HL       0.250000       1.00800           0
      9669 MEMB     84       OSM      C12      CTL2    -0.100000       12.0110           0
      9670 MEMB     84       OSM      H12A     HL       0.250000       1.00800           0
      9671 MEMB     84       OSM      H12B     HL       0.250000       1.00800           0
      9672 MEMB     84       OSM      C11      CTL2    -0.800000E-01   12.0110           0
      9673 MEMB     84       OSM      H11A     HAL2     0.900000E-01   1.00800           0
      9674 MEMB     84       OSM      H11B     HAL2     0.900000E-01   1.00800           0
      9675 MEMB     84       OSM      P        PL        1.50000       30.9740           0
      9676 MEMB     84       OSM      O13      O2L     -0.780000       15.9994           0
      9677 MEMB     84       OSM      O14      O2L     -0.780000       15.9994           0
      9678 MEMB     84       OSM      O11      OSLP    -0.570000       15.9994           0
      9679 MEMB     84       OSM      O12      OSLP    -0.570000       15.9994           0
      9680 MEMB     84       OSM      C1S      CTL2    -0.800000E-01   12.0110           0
      9681 MEMB     84       OSM      H1S      HAL2     0.900000E-01   1.00800           0
      9682 MEMB     84       OSM      H1T      HAL2     0.900000E-01   1.00800           0
      9683 MEMB     84       OSM      NF       NHL     -0.700000       14.0070           0
      9684 MEMB     84       OSM      HNF      H        0.350000       1.00800           0
      9685 MEMB     84       OSM      C2S      CTL1     0.300000       12.0110           0
      9686 MEMB     84       OSM      H2S      HAL1     0.500000E-01   1.00800           0
      9687 MEMB     84       OSM      C3S      CTO1     0.500000       12.0110           0
      9688 MEMB     84       OSM      H3S      HAL1    -0.110000       1.00800           0
      9689 MEMB     84       OSM      O3       OHL     -0.690000       15.9994           0
      9690 MEMB     84       OSM      HO3      HOL      0.300000       1.00800           0
      9691 MEMB     84       OSM      C4S      CEL3    -0.150000       12.0110           0
      9692 MEMB     84       OSM      H4S      HEL1     0.150000       1.00800           0
      9693 MEMB     84       OSM      C5S      CEL3    -0.150000       12.0110           0
      9694 MEMB     84       OSM      H5S      HEL1     0.150000       1.00800           0
      9695 MEMB     84       OSM      C6S      CTL2    -0.180000       12.0110           0
      9696 MEMB     84       OSM      H6S      HAL2     0.900000E-01   1.00800           0
      9697 MEMB     84       OSM      H6T      HAL2     0.900000E-01   1.00800           0
      9698 MEMB     84       OSM      C7S      CTL2    -0.180000       12.0110           0
      9699 MEMB     84       OSM      H7S      HAL2     0.900000E-01   1.00800           0
      9700 MEMB     84       OSM      H7T      HAL2     0.900000E-01   1.00800           0
      9701 MEMB     84       OSM      C8S      CTL2    -0.180000       12.0110           0
      9702 MEMB     84       OSM      H8S      HAL2     0.900000E-01   1.00800           0
      9703 MEMB     84       OSM      H8T      HAL2     0.900000E-01   1.00800           0
      9704 MEMB     84       OSM      C9S      CTL2    -0.180000       12.0110           0
      9705 MEMB     84       OSM      H9S      HAL2     0.900000E-01   1.00800           0
      9706 MEMB     84       OSM      H9T      HAL2     0.900000E-01   1.00800           0
      9707 MEMB     84       OSM      C10S     CTL2    -0.180000       12.0110           0
      9708 MEMB     84       OSM      H10S     HAL2     0.900000E-01   1.00800           0
      9709 MEMB     84       OSM      H10T     HAL2     0.900000E-01   1.00800           0
      9710 MEMB     84       OSM      C11S     CTL2    -0.180000       12.0110           0
      9711 MEMB     84       OSM      H11S     HAL2     0.900000E-01   1.00800           0
      9712 MEMB     84       OSM      H11T     HAL2     0.900000E-01   1.00800           0
      9713 MEMB     84       OSM      C12S     CTL2    -0.180000       12.0110           0
      9714 MEMB     84       OSM      H12S     HAL2     0.900000E-01   1.00800           0
      9715 MEMB     84       OSM      H12T     HAL2     0.900000E-01   1.00800           0
      9716 MEMB     84       OSM      C13S     CTL2    -0.180000       12.0110           0
      9717 MEMB     84       OSM      H13S     HAL2     0.900000E-01   1.00800           0
      9718 MEMB     84       OSM      H13T     HAL2     0.900000E-01   1.00800           0
      9719 MEMB     84       OSM      C14S     CTL2    -0.180000       12.0110           0
      9720 MEMB     84       OSM      H14S     HAL2     0.900000E-01   1.00800           0
      9721 MEMB     84       OSM      H14T     HAL2     0.900000E-01   1.00800           0
      9722 MEMB     84       OSM      C15S     CTL2    -0.180000       12.0110           0
      9723 MEMB     84       OSM      H15S     HAL2     0.900000E-01   1.00800           0
      9724 MEMB     84       OSM      H15T     HAL2     0.900000E-01   1.00800           0
      9725 MEMB     84       OSM      C16S     CTL2    -0.180000       12.0110           0
      9726 MEMB     84       OSM      H16S     HAL2     0.900000E-01   1.00800           0
      9727 MEMB     84       OSM      H16T     HAL2     0.900000E-01   1.00800           0
      9728 MEMB     84       OSM      C17S     CTL2    -0.180000       12.0110           0
      9729 MEMB     84       OSM      H17S     HAL2     0.900000E-01   1.00800           0
      9730 MEMB     84       OSM      H17T     HAL2     0.900000E-01   1.00800           0
      9731 MEMB     84       OSM      C18S     CTL3    -0.270000       12.0110           0
      9732 MEMB     84       OSM      H18S     HAL3     0.900000E-01   1.00800           0
      9733 MEMB     84       OSM      H18T     HAL3     0.900000E-01   1.00800           0
      9734 MEMB     84       OSM      H18U     HAL3     0.900000E-01   1.00800           0
      9735 MEMB     84       OSM      C1F      C        0.550000       12.0110           0
      9736 MEMB     84       OSM      OF       O       -0.600000       15.9994           0
      9737 MEMB     84       OSM      C2F      CTL2    -0.700000E-01   12.0110           0
      9738 MEMB     84       OSM      H2F      HAL2     0.600000E-01   1.00800           0
      9739 MEMB     84       OSM      H2G      HAL2     0.600000E-01   1.00800           0
      9740 MEMB     84       OSM      C3F      CTL2    -0.180000       12.0110           0
      9741 MEMB     84       OSM      H3F      HAL2     0.900000E-01   1.00800           0
      9742 MEMB     84       OSM      H3G      HAL2     0.900000E-01   1.00800           0
      9743 MEMB     84       OSM      C4F      CTL2    -0.180000       12.0110           0
      9744 MEMB     84       OSM      H4F      HAL2     0.900000E-01   1.00800           0
      9745 MEMB     84       OSM      H4G      HAL2     0.900000E-01   1.00800           0
      9746 MEMB     84       OSM      C5F      CTL2    -0.180000       12.0110           0
      9747 MEMB     84       OSM      H5F      HAL2     0.900000E-01   1.00800           0
      9748 MEMB     84       OSM      H5G      HAL2     0.900000E-01   1.00800           0
      9749 MEMB     84       OSM      C6F      CTL2    -0.180000       12.0110           0
      9750 MEMB     84       OSM      H6F      HAL2     0.900000E-01   1.00800           0
      9751 MEMB     84       OSM      H6G      HAL2     0.900000E-01   1.00800           0
      9752 MEMB     84       OSM      C7F      CTL2    -0.180000       12.0110           0
      9753 MEMB     84       OSM      H7F      HAL2     0.900000E-01   1.00800           0
      9754 MEMB     84       OSM      H7G      HAL2     0.900000E-01   1.00800           0
      9755 MEMB     84       OSM      C8F      CTL2    -0.180000       12.0110           0
      9756 MEMB     84       OSM      H8F      HAL2     0.900000E-01   1.00800           0
      9757 MEMB     84       OSM      H8G      HAL2     0.900000E-01   1.00800           0
      9758 MEMB     84       OSM      C9F      CEL1    -0.150000       12.0110           0
      9759 MEMB     84       OSM      H9F      HEL1     0.150000       1.00800           0
      9760 MEMB     84       OSM      C10F     CEL1    -0.150000       12.0110           0
      9761 MEMB     84       OSM      H10F     HEL1     0.150000       1.00800           0
      9762 MEMB     84       OSM      C11F     CTL2    -0.180000       12.0110           0
      9763 MEMB     84       OSM      H11F     HAL2     0.900000E-01   1.00800           0
      9764 MEMB     84       OSM      H11G     HAL2     0.900000E-01   1.00800           0
      9765 MEMB     84       OSM      C12F     CTL2    -0.180000       12.0110           0
      9766 MEMB     84       OSM      H12F     HAL2     0.900000E-01   1.00800           0
      9767 MEMB     84       OSM      H12G     HAL2     0.900000E-01   1.00800           0
      9768 MEMB     84       OSM      C13F     CTL2    -0.180000       12.0110           0
      9769 MEMB     84       OSM      H13F     HAL2     0.900000E-01   1.00800           0
      9770 MEMB     84       OSM      H13G     HAL2     0.900000E-01   1.00800           0
      9771 MEMB     84       OSM      C14F     CTL2    -0.180000       12.0110           0
      9772 MEMB     84       OSM      H14F     HAL2     0.900000E-01   1.00800           0
      9773 MEMB     84       OSM      H14G     HAL2     0.900000E-01   1.00800           0
      9774 MEMB     84       OSM      C15F     CTL2    -0.180000       12.0110           0
      9775 MEMB     84       OSM      H15F     HAL2     0.900000E-01   1.00800           0
      9776 MEMB     84       OSM      H15G     HAL2     0.900000E-01   1.00800           0
      9777 MEMB     84       OSM      C16F     CTL2    -0.180000       12.0110           0
      9778 MEMB     84       OSM      H16F     HAL2     0.900000E-01   1.00800           0
      9779 MEMB     84       OSM      H16G     HAL2     0.900000E-01   1.00800           0
      9780 MEMB     84       OSM      C17F     CTL2    -0.180000       12.0110           0
      9781 MEMB     84       OSM      H17F     HAL2     0.900000E-01   1.00800           0
      9782 MEMB     84       OSM      H17G     HAL2     0.900000E-01   1.00800           0
      9783 MEMB     84       OSM      C18F     CTL3    -0.270000       12.0110           0
      9784 MEMB     84       OSM      H18F     HAL3     0.900000E-01   1.00800           0
      9785 MEMB     84       OSM      H18G     HAL3     0.900000E-01   1.00800           0
      9786 MEMB     84       OSM      H18H     HAL3     0.900000E-01   1.00800           0
      9787 MEMB     85       SAPS     N        NH3L    -0.300000       14.0070           0
      9788 MEMB     85       SAPS     HN1      HCL      0.330000       1.00800           0
      9789 MEMB     85       SAPS     HN2      HCL      0.330000       1.00800           0
      9790 MEMB     85       SAPS     HN3      HCL      0.330000       1.00800           0
      9791 MEMB     85       SAPS     C12      CTL1     0.210000       12.0110           0
      9792 MEMB     85       SAPS     H12A     HBL      0.100000       1.00800           0
      9793 MEMB     85       SAPS     C13      CCL      0.340000       12.0110           0
      9794 MEMB     85       SAPS     O13A     OCL     -0.670000       15.9994           0
      9795 MEMB     85       SAPS     O13B     OCL     -0.670000       15.9994           0
      9796 MEMB     85       SAPS     C11      CTL2    -0.800000E-01   12.0110           0
      9797 MEMB     85       SAPS     H11A     HAL2     0.900000E-01   1.00800           0
      9798 MEMB     85       SAPS     H11B     HAL2     0.900000E-01   1.00800           0
      9799 MEMB     85       SAPS     P        PL        1.50000       30.9740           0
      9800 MEMB     85       SAPS     O13      O2L     -0.780000       15.9994           0
      9801 MEMB     85       SAPS     O14      O2L     -0.780000       15.9994           0
      9802 MEMB     85       SAPS     O12      OSLP    -0.570000       15.9994           0
      9803 MEMB     85       SAPS     O11      OSLP    -0.570000       15.9994           0
      9804 MEMB     85       SAPS     C1       CTL2    -0.800000E-01   12.0110           0
      9805 MEMB     85       SAPS     HA       HAL2     0.900000E-01   1.00800           0
      9806 MEMB     85       SAPS     HB       HAL2     0.900000E-01   1.00800           0
      9807 MEMB     85       SAPS     C2       CTL1     0.170000       12.0110           0
      9808 MEMB     85       SAPS     HS       HAL1     0.900000E-01   1.00800           0
      9809 MEMB     85       SAPS     O21      OSL     -0.490000       15.9994           0
      9810 MEMB     85       SAPS     C21      CL       0.900000       12.0110           0
      9811 MEMB     85       SAPS     O22      OBL     -0.630000       15.9994           0
      9812 MEMB     85       SAPS     C22      CTL2    -0.220000       12.0110           0
      9813 MEMB     85       SAPS     H2R      HAL2     0.900000E-01   1.00800           0
      9814 MEMB     85       SAPS     H2S      HAL2     0.900000E-01   1.00800           0
      9815 MEMB     85       SAPS     C3       CTL2     0.800000E-01   12.0110           0
      9816 MEMB     85       SAPS     HX       HAL2     0.900000E-01   1.00800           0
      9817 MEMB     85       SAPS     HY       HAL2     0.900000E-01   1.00800           0
      9818 MEMB     85       SAPS     O31      OSL     -0.490000       15.9994           0
      9819 MEMB     85       SAPS     C31      CL       0.900000       12.0110           0
      9820 MEMB     85       SAPS     O32      OBL     -0.630000       15.9994           0
      9821 MEMB     85       SAPS     C32      CTL2    -0.220000       12.0110           0
      9822 MEMB     85       SAPS     H2X      HAL2     0.900000E-01   1.00800           0
      9823 MEMB     85       SAPS     H2Y      HAL2     0.900000E-01   1.00800           0
      9824 MEMB     85       SAPS     C23      CTL2    -0.180000       12.0110           0
      9825 MEMB     85       SAPS     H3R      HAL2     0.900000E-01   1.00800           0
      9826 MEMB     85       SAPS     H3S      HAL2     0.900000E-01   1.00800           0
      9827 MEMB     85       SAPS     C24      CTL2    -0.180000       12.0110           0
      9828 MEMB     85       SAPS     H4R      HAL2     0.900000E-01   1.00800           0
      9829 MEMB     85       SAPS     H4S      HAL2     0.900000E-01   1.00800           0
      9830 MEMB     85       SAPS     C25      CEL1    -0.150000       12.0110           0
      9831 MEMB     85       SAPS     H5R      HEL1     0.150000       1.00800           0
      9832 MEMB     85       SAPS     C26      CEL1    -0.150000       12.0110           0
      9833 MEMB     85       SAPS     H6R      HEL1     0.150000       1.00800           0
      9834 MEMB     85       SAPS     C27      CTL2    -0.180000       12.0110           0
      9835 MEMB     85       SAPS     H7R      HAL2     0.900000E-01   1.00800           0
      9836 MEMB     85       SAPS     H7S      HAL2     0.900000E-01   1.00800           0
      9837 MEMB     85       SAPS     C28      CEL1    -0.150000       12.0110           0
      9838 MEMB     85       SAPS     H8R      HEL1     0.150000       1.00800           0
      9839 MEMB     85       SAPS     C29      CEL1    -0.150000       12.0110           0
      9840 MEMB     85       SAPS     H9R      HEL1     0.150000       1.00800           0
      9841 MEMB     85       SAPS     C210     CTL2    -0.180000       12.0110           0
      9842 MEMB     85       SAPS     H10R     HAL2     0.900000E-01   1.00800           0
      9843 MEMB     85       SAPS     H10S     HAL2     0.900000E-01   1.00800           0
      9844 MEMB     85       SAPS     C211     CEL1    -0.150000       12.0110           0
      9845 MEMB     85       SAPS     H11R     HEL1     0.150000       1.00800           0
      9846 MEMB     85       SAPS     C212     CEL1    -0.150000       12.0110           0
      9847 MEMB     85       SAPS     H12R     HEL1     0.150000       1.00800           0
      9848 MEMB     85       SAPS     C213     CTL2    -0.180000       12.0110           0
      9849 MEMB     85       SAPS     H13R     HAL2     0.900000E-01   1.00800           0
      9850 MEMB     85       SAPS     H13S     HAL2     0.900000E-01   1.00800           0
      9851 MEMB     85       SAPS     C214     CEL1    -0.150000       12.0110           0
      9852 MEMB     85       SAPS     H14R     HEL1     0.150000       1.00800           0
      9853 MEMB     85       SAPS     C215     CEL1    -0.150000       12.0110           0
      9854 MEMB     85       SAPS     H15R     HEL1     0.150000       1.00800           0
      9855 MEMB     85       SAPS     C216     CTL2    -0.180000       12.0110           0
      9856 MEMB     85       SAPS     H16R     HAL2     0.900000E-01   1.00800           0
      9857 MEMB     85       SAPS     H16S     HAL2     0.900000E-01   1.00800           0
      9858 MEMB     85       SAPS     C217     CTL2    -0.180000       12.0110           0
      9859 MEMB     85       SAPS     H17R     HAL2     0.900000E-01   1.00800           0
      9860 MEMB     85       SAPS     H17S     HAL2     0.900000E-01   1.00800           0
      9861 MEMB     85       SAPS     C218     CTL2    -0.180000       12.0110           0
      9862 MEMB     85       SAPS     H18R     HAL2     0.900000E-01   1.00800           0
      9863 MEMB     85       SAPS     H18S     HAL2     0.900000E-01   1.00800           0
      9864 MEMB     85       SAPS     C219     CTL2    -0.180000       12.0110           0
      9865 MEMB     85       SAPS     H19R     HAL2     0.900000E-01   1.00800           0
      9866 MEMB     85       SAPS     H19S     HAL2     0.900000E-01   1.00800           0
      9867 MEMB     85       SAPS     C220     CTL3    -0.270000       12.0110           0
      9868 MEMB     85       SAPS     H20R     HAL3     0.900000E-01   1.00800           0
      9869 MEMB     85       SAPS     H20S     HAL3     0.900000E-01   1.00800           0
      9870 MEMB     85       SAPS     H20T     HAL3     0.900000E-01   1.00800           0
      9871 MEMB     85       SAPS     C33      CTL2    -0.180000       12.0110           0
      9872 MEMB     85       SAPS     H3X      HAL2     0.900000E-01   1.00800           0
      9873 MEMB     85       SAPS     H3Y      HAL2     0.900000E-01   1.00800           0
      9874 MEMB     85       SAPS     C34      CTL2    -0.180000       12.0110           0
      9875 MEMB     85       SAPS     H4X      HAL2     0.900000E-01   1.00800           0
      9876 MEMB     85       SAPS     H4Y      HAL2     0.900000E-01   1.00800           0
      9877 MEMB     85       SAPS     C35      CTL2    -0.180000       12.0110           0
      9878 MEMB     85       SAPS     H5X      HAL2     0.900000E-01   1.00800           0
      9879 MEMB     85       SAPS     H5Y      HAL2     0.900000E-01   1.00800           0
      9880 MEMB     85       SAPS     C36      CTL2    -0.180000       12.0110           0
      9881 MEMB     85       SAPS     H6X      HAL2     0.900000E-01   1.00800           0
      9882 MEMB     85       SAPS     H6Y      HAL2     0.900000E-01   1.00800           0
      9883 MEMB     85       SAPS     C37      CTL2    -0.180000       12.0110           0
      9884 MEMB     85       SAPS     H7X      HAL2     0.900000E-01   1.00800           0
      9885 MEMB     85       SAPS     H7Y      HAL2     0.900000E-01   1.00800           0
      9886 MEMB     85       SAPS     C38      CTL2    -0.180000       12.0110           0
      9887 MEMB     85       SAPS     H8X      HAL2     0.900000E-01   1.00800           0
      9888 MEMB     85       SAPS     H8Y      HAL2     0.900000E-01   1.00800           0
      9889 MEMB     85       SAPS     C39      CTL2    -0.180000       12.0110           0
      9890 MEMB     85       SAPS     H9X      HAL2     0.900000E-01   1.00800           0
      9891 MEMB     85       SAPS     H9Y      HAL2     0.900000E-01   1.00800           0
      9892 MEMB     85       SAPS     C310     CTL2    -0.180000       12.0110           0
      9893 MEMB     85       SAPS     H10X     HAL2     0.900000E-01   1.00800           0
      9894 MEMB     85       SAPS     H10Y     HAL2     0.900000E-01   1.00800           0
      9895 MEMB     85       SAPS     C311     CTL2    -0.180000       12.0110           0
      9896 MEMB     85       SAPS     H11X     HAL2     0.900000E-01   1.00800           0
      9897 MEMB     85       SAPS     H11Y     HAL2     0.900000E-01   1.00800           0
      9898 MEMB     85       SAPS     C312     CTL2    -0.180000       12.0110           0
      9899 MEMB     85       SAPS     H12X     HAL2     0.900000E-01   1.00800           0
      9900 MEMB     85       SAPS     H12Y     HAL2     0.900000E-01   1.00800           0
      9901 MEMB     85       SAPS     C313     CTL2    -0.180000       12.0110           0
      9902 MEMB     85       SAPS     H13X     HAL2     0.900000E-01   1.00800           0
      9903 MEMB     85       SAPS     H13Y     HAL2     0.900000E-01   1.00800           0
      9904 MEMB     85       SAPS     C314     CTL2    -0.180000       12.0110           0
      9905 MEMB     85       SAPS     H14X     HAL2     0.900000E-01   1.00800           0
      9906 MEMB     85       SAPS     H14Y     HAL2     0.900000E-01   1.00800           0
      9907 MEMB     85       SAPS     C315     CTL2    -0.180000       12.0110           0
      9908 MEMB     85       SAPS     H15X     HAL2     0.900000E-01   1.00800           0
      9909 MEMB     85       SAPS     H15Y     HAL2     0.900000E-01   1.00800           0
      9910 MEMB     85       SAPS     C316     CTL2    -0.180000       12.0110           0
      9911 MEMB     85       SAPS     H16X     HAL2     0.900000E-01   1.00800           0
      9912 MEMB     85       SAPS     H16Y     HAL2     0.900000E-01   1.00800           0
      9913 MEMB     85       SAPS     C317     CTL2    -0.180000       12.0110           0
      9914 MEMB     85       SAPS     H17X     HAL2     0.900000E-01   1.00800           0
      9915 MEMB     85       SAPS     H17Y     HAL2     0.900000E-01   1.00800           0
      9916 MEMB     85       SAPS     C318     CTL3    -0.270000       12.0110           0
      9917 MEMB     85       SAPS     H18X     HAL3     0.900000E-01   1.00800           0
      9918 MEMB     85       SAPS     H18Y     HAL3     0.900000E-01   1.00800           0
      9919 MEMB     85       SAPS     H18Z     HAL3     0.900000E-01   1.00800           0
      9920 MEMB     86       CHL1     C3       CRL1     0.140000       12.0110           0
      9921 MEMB     86       CHL1     H3       HGA1     0.900000E-01   1.00800           0
      9922 MEMB     86       CHL1     O3       OHL     -0.660000       15.9994           0
      9923 MEMB     86       CHL1     H3'      HOL      0.430000       1.00800           0
      9924 MEMB     86       CHL1     C4       CRL2    -0.180000       12.0110           0
      9925 MEMB     86       CHL1     H4A      HGA2     0.900000E-01   1.00800           0
      9926 MEMB     86       CHL1     H4B      HGA2     0.900000E-01   1.00800           0
      9927 MEMB     86       CHL1     C5       CEL1      0.00000       12.0110           0
      9928 MEMB     86       CHL1     C6       CEL1    -0.150000       12.0110           0
      9929 MEMB     86       CHL1     H6       HEL1     0.150000       1.00800           0
      9930 MEMB     86       CHL1     C7       CRL2    -0.180000       12.0110           0
      9931 MEMB     86       CHL1     H7A      HGA2     0.900000E-01   1.00800           0
      9932 MEMB     86       CHL1     H7B      HGA2     0.900000E-01   1.00800           0
      9933 MEMB     86       CHL1     C8       CRL1    -0.900000E-01   12.0110           0
      9934 MEMB     86       CHL1     H8       HGA1     0.900000E-01   1.00800           0
      9935 MEMB     86       CHL1     C14      CRL1    -0.900000E-01   12.0110           0
      9936 MEMB     86       CHL1     H14      HGA1     0.900000E-01   1.00800           0
      9937 MEMB     86       CHL1     C15      CRL2    -0.180000       12.0110           0
      9938 MEMB     86       CHL1     H15A     HGA2     0.900000E-01   1.00800           0
      9939 MEMB     86       CHL1     H15B     HGA2     0.900000E-01   1.00800           0
      9940 MEMB     86       CHL1     C16      CRL2    -0.180000       12.0110           0
      9941 MEMB     86       CHL1     H16A     HGA2     0.900000E-01   1.00800           0
      9942 MEMB     86       CHL1     H16B     HGA2     0.900000E-01   1.00800           0
      9943 MEMB     86       CHL1     C17      CRL1    -0.900000E-01   12.0110           0
      9944 MEMB     86       CHL1     H17      HGA1     0.900000E-01   1.00800           0
      9945 MEMB     86       CHL1     C13      CRL1      0.00000       12.0110           0
      9946 MEMB     86       CHL1     C18      CTL3    -0.270000       12.0110           0
      9947 MEMB     86       CHL1     H18A     HAL3     0.900000E-01   1.00800           0
      9948 MEMB     86       CHL1     H18B     HAL3     0.900000E-01   1.00800           0
      9949 MEMB     86       CHL1     H18C     HAL3     0.900000E-01   1.00800           0
      9950 MEMB     86       CHL1     C12      CRL2    -0.180000       12.0110           0
      9951 MEMB     86       CHL1     H12A     HGA2     0.900000E-01   1.00800           0
      9952 MEMB     86       CHL1     H12B     HGA2     0.900000E-01   1.00800           0
      9953 MEMB     86       CHL1     C11      CRL2    -0.180000       12.0110           0
      9954 MEMB     86       CHL1     H11A     HGA2     0.900000E-01   1.00800           0
      9955 MEMB     86       CHL1     H11B     HGA2     0.900000E-01   1.00800           0
      9956 MEMB     86       CHL1     C9       CRL1    -0.900000E-01   12.0110           0
      9957 MEMB     86       CHL1     H9       HGA1     0.900000E-01   1.00800           0
      9958 MEMB     86       CHL1     C10      CRL1      0.00000       12.0110           0
      9959 MEMB     86       CHL1     C19      CTL3    -0.270000       12.0110           0
      9960 MEMB     86       CHL1     H19A     HAL3     0.900000E-01   1.00800           0
      9961 MEMB     86       CHL1     H19B     HAL3     0.900000E-01   1.00800           0
      9962 MEMB     86       CHL1     H19C     HAL3     0.900000E-01   1.00800           0
      9963 MEMB     86       CHL1     C1       CRL2    -0.180000       12.0110           0
      9964 MEMB     86       CHL1     H1A      HGA2     0.900000E-01   1.00800           0
      9965 MEMB     86       CHL1     H1B      HGA2     0.900000E-01   1.00800           0
      9966 MEMB     86       CHL1     C2       CRL2    -0.180000       12.0110           0
      9967 MEMB     86       CHL1     H2A      HGA2     0.900000E-01   1.00800           0
      9968 MEMB     86       CHL1     H2B      HGA2     0.900000E-01   1.00800           0
      9969 MEMB     86       CHL1     C20      CTL1    -0.900000E-01   12.0110           0
      9970 MEMB     86       CHL1     H20      HAL1     0.900000E-01   1.00800           0
      9971 MEMB     86       CHL1     C21      CTL3    -0.270000       12.0110           0
      9972 MEMB     86       CHL1     H21A     HAL3     0.900000E-01   1.00800           0
      9973 MEMB     86       CHL1     H21B     HAL3     0.900000E-01   1.00800           0
      9974 MEMB     86       CHL1     H21C     HAL3     0.900000E-01   1.00800           0
      9975 MEMB     86       CHL1     C22      CTL2    -0.180000       12.0110           0
      9976 MEMB     86       CHL1     H22A     HAL2     0.900000E-01   1.00800           0
      9977 MEMB     86       CHL1     H22B     HAL2     0.900000E-01   1.00800           0
      9978 MEMB     86       CHL1     C23      CTL2    -0.180000       12.0110           0
      9979 MEMB     86       CHL1     H23A     HAL2     0.900000E-01   1.00800           0
      9980 MEMB     86       CHL1     H23B     HAL2     0.900000E-01   1.00800           0
      9981 MEMB     86       CHL1     C24      CTL2    -0.180000       12.0110           0
      9982 MEMB     86       CHL1     H24A     HAL2     0.900000E-01   1.00800           0
      9983 MEMB     86       CHL1     H24B     HAL2     0.900000E-01   1.00800           0
      9984 MEMB     86       CHL1     C25      CTL1    -0.900000E-01   12.0110           0
      9985 MEMB     86       CHL1     H25      HAL1     0.900000E-01   1.00800           0
      9986 MEMB     86       CHL1     C26      CTL3    -0.270000       12.0110           0
      9987 MEMB     86       CHL1     H26A     HAL3     0.900000E-01   1.00800           0
      9988 MEMB     86       CHL1     H26B     HAL3     0.900000E-01   1.00800           0
      9989 MEMB     86       CHL1     H26C     HAL3     0.900000E-01   1.00800           0
      9990 MEMB     86       CHL1     C27      CTL3    -0.270000       12.0110           0
      9991 MEMB     86       CHL1     H27A     HAL3     0.900000E-01   1.00800           0
      9992 MEMB     86       CHL1     H27B     HAL3     0.900000E-01   1.00800           0
      9993 MEMB     86       CHL1     H27C     HAL3     0.900000E-01   1.00800           0
      9994 MEMB     87       SAPE     N        NH3L    -0.300000       14.0070           0
      9995 MEMB     87       SAPE     HN1      HCL      0.330000       1.00800           0
      9996 MEMB     87       SAPE     HN2      HCL      0.330000       1.00800           0
      9997 MEMB     87       SAPE     HN3      HCL      0.330000       1.00800           0
      9998 MEMB     87       SAPE     C12      CTL2     0.130000       12.0110           0
      9999 MEMB     87       SAPE     H12A     HAL2     0.900000E-01   1.00800           0
     10000 MEMB     87       SAPE     H12B     HAL2     0.900000E-01   1.00800           0
     10001 MEMB     87       SAPE     C11      CTL2    -0.800000E-01   12.0110           0
     10002 MEMB     87       SAPE     H11A     HAL2     0.900000E-01   1.00800           0
     10003 MEMB     87       SAPE     H11B     HAL2     0.900000E-01   1.00800           0
     10004 MEMB     87       SAPE     P        PL        1.50000       30.9740           0
     10005 MEMB     87       SAPE     O13      O2L     -0.780000       15.9994           0
     10006 MEMB     87       SAPE     O14      O2L     -0.780000       15.9994           0
     10007 MEMB     87       SAPE     O12      OSLP    -0.570000       15.9994           0
     10008 MEMB     87       SAPE     O11      OSLP    -0.570000       15.9994           0
     10009 MEMB     87       SAPE     C1       CTL2    -0.800000E-01   12.0110           0
     10010 MEMB     87       SAPE     HA       HAL2     0.900000E-01   1.00800           0
     10011 MEMB     87       SAPE     HB       HAL2     0.900000E-01   1.00800           0
     10012 MEMB     87       SAPE     C2       CTL1     0.170000       12.0110           0
     10013 MEMB     87       SAPE     HS       HAL1     0.900000E-01   1.00800           0
     10014 MEMB     87       SAPE     O21      OSL     -0.490000       15.9994           0
     10015 MEMB     87       SAPE     C21      CL       0.900000       12.0110           0
     10016 MEMB     87       SAPE     O22      OBL     -0.630000       15.9994           0
     10017 MEMB     87       SAPE     C22      CTL2    -0.220000       12.0110           0
     10018 MEMB     87       SAPE     H2R      HAL2     0.900000E-01   1.00800           0
     10019 MEMB     87       SAPE     H2S      HAL2     0.900000E-01   1.00800           0
     10020 MEMB     87       SAPE     C3       CTL2     0.800000E-01   12.0110           0
     10021 MEMB     87       SAPE     HX       HAL2     0.900000E-01   1.00800           0
     10022 MEMB     87       SAPE     HY       HAL2     0.900000E-01   1.00800           0
     10023 MEMB     87       SAPE     O31      OSL     -0.490000       15.9994           0
     10024 MEMB     87       SAPE     C31      CL       0.900000       12.0110           0
     10025 MEMB     87       SAPE     O32      OBL     -0.630000       15.9994           0
     10026 MEMB     87       SAPE     C32      CTL2    -0.220000       12.0110           0
     10027 MEMB     87       SAPE     H2X      HAL2     0.900000E-01   1.00800           0
     10028 MEMB     87       SAPE     H2Y      HAL2     0.900000E-01   1.00800           0
     10029 MEMB     87       SAPE     C23      CTL2    -0.180000       12.0110           0
     10030 MEMB     87       SAPE     H3R      HAL2     0.900000E-01   1.00800           0
     10031 MEMB     87       SAPE     H3S      HAL2     0.900000E-01   1.00800           0
     10032 MEMB     87       SAPE     C24      CTL2    -0.180000       12.0110           0
     10033 MEMB     87       SAPE     H4R      HAL2     0.900000E-01   1.00800           0
     10034 MEMB     87       SAPE     H4S      HAL2     0.900000E-01   1.00800           0
     10035 MEMB     87       SAPE     C25      CEL1    -0.150000       12.0110           0
     10036 MEMB     87       SAPE     H5R      HEL1     0.150000       1.00800           0
     10037 MEMB     87       SAPE     C26      CEL1    -0.150000       12.0110           0
     10038 MEMB     87       SAPE     H6R      HEL1     0.150000       1.00800           0
     10039 MEMB     87       SAPE     C27      CTL2    -0.180000       12.0110           0
     10040 MEMB     87       SAPE     H7R      HAL2     0.900000E-01   1.00800           0
     10041 MEMB     87       SAPE     H7S      HAL2     0.900000E-01   1.00800           0
     10042 MEMB     87       SAPE     C28      CEL1    -0.150000       12.0110           0
     10043 MEMB     87       SAPE     H8R      HEL1     0.150000       1.00800           0
     10044 MEMB     87       SAPE     C29      CEL1    -0.150000       12.0110           0
     10045 MEMB     87       SAPE     H9R      HEL1     0.150000       1.00800           0
     10046 MEMB     87       SAPE     C210     CTL2    -0.180000       12.0110           0
     10047 MEMB     87       SAPE     H10R     HAL2     0.900000E-01   1.00800           0
     10048 MEMB     87       SAPE     H10S     HAL2     0.900000E-01   1.00800           0
     10049 MEMB     87       SAPE     C211     CEL1    -0.150000       12.0110           0
     10050 MEMB     87       SAPE     H11R     HEL1     0.150000       1.00800           0
     10051 MEMB     87       SAPE     C212     CEL1    -0.150000       12.0110           0
     10052 MEMB     87       SAPE     H12R     HEL1     0.150000       1.00800           0
     10053 MEMB     87       SAPE     C213     CTL2    -0.180000       12.0110           0
     10054 MEMB     87       SAPE     H13R     HAL2     0.900000E-01   1.00800           0
     10055 MEMB     87       SAPE     H13S     HAL2     0.900000E-01   1.00800           0
     10056 MEMB     87       SAPE     C214     CEL1    -0.150000       12.0110           0
     10057 MEMB     87       SAPE     H14R     HEL1     0.150000       1.00800           0
     10058 MEMB     87       SAPE     C215     CEL1    -0.150000       12.0110           0
     10059 MEMB     87       SAPE     H15R     HEL1     0.150000       1.00800           0
     10060 MEMB     87       SAPE     C216     CTL2    -0.180000       12.0110           0
     10061 MEMB     87       SAPE     H16R     HAL2     0.900000E-01   1.00800           0
     10062 MEMB     87       SAPE     H16S     HAL2     0.900000E-01   1.00800           0
     10063 MEMB     87       SAPE     C217     CTL2    -0.180000       12.0110           0
     10064 MEMB     87       SAPE     H17R     HAL2     0.900000E-01   1.00800           0
     10065 MEMB     87       SAPE     H17S     HAL2     0.900000E-01   1.00800           0
     10066 MEMB     87       SAPE     C218     CTL2    -0.180000       12.0110           0
     10067 MEMB     87       SAPE     H18R     HAL2     0.900000E-01   1.00800           0
     10068 MEMB     87       SAPE     H18S     HAL2     0.900000E-01   1.00800           0
     10069 MEMB     87       SAPE     C219     CTL2    -0.180000       12.0110           0
     10070 MEMB     87       SAPE     H19R     HAL2     0.900000E-01   1.00800           0
     10071 MEMB     87       SAPE     H19S     HAL2     0.900000E-01   1.00800           0
     10072 MEMB     87       SAPE     C220     CTL3    -0.270000       12.0110           0
     10073 MEMB     87       SAPE     H20R     HAL3     0.900000E-01   1.00800           0
     10074 MEMB     87       SAPE     H20S     HAL3     0.900000E-01   1.00800           0
     10075 MEMB     87       SAPE     H20T     HAL3     0.900000E-01   1.00800           0
     10076 MEMB     87       SAPE     C33      CTL2    -0.180000       12.0110           0
     10077 MEMB     87       SAPE     H3X      HAL2     0.900000E-01   1.00800           0
     10078 MEMB     87       SAPE     H3Y      HAL2     0.900000E-01   1.00800           0
     10079 MEMB     87       SAPE     C34      CTL2    -0.180000       12.0110           0
     10080 MEMB     87       SAPE     H4X      HAL2     0.900000E-01   1.00800           0
     10081 MEMB     87       SAPE     H4Y      HAL2     0.900000E-01   1.00800           0
     10082 MEMB     87       SAPE     C35      CTL2    -0.180000       12.0110           0
     10083 MEMB     87       SAPE     H5X      HAL2     0.900000E-01   1.00800           0
     10084 MEMB     87       SAPE     H5Y      HAL2     0.900000E-01   1.00800           0
     10085 MEMB     87       SAPE     C36      CTL2    -0.180000       12.0110           0
     10086 MEMB     87       SAPE     H6X      HAL2     0.900000E-01   1.00800           0
     10087 MEMB     87       SAPE     H6Y      HAL2     0.900000E-01   1.00800           0
     10088 MEMB     87       SAPE     C37      CTL2    -0.180000       12.0110           0
     10089 MEMB     87       SAPE     H7X      HAL2     0.900000E-01   1.00800           0
     10090 MEMB     87       SAPE     H7Y      HAL2     0.900000E-01   1.00800           0
     10091 MEMB     87       SAPE     C38      CTL2    -0.180000       12.0110           0
     10092 MEMB     87       SAPE     H8X      HAL2     0.900000E-01   1.00800           0
     10093 MEMB     87       SAPE     H8Y      HAL2     0.900000E-01   1.00800           0
     10094 MEMB     87       SAPE     C39      CTL2    -0.180000       12.0110           0
     10095 MEMB     87       SAPE     H9X      HAL2     0.900000E-01   1.00800           0
     10096 MEMB     87       SAPE     H9Y      HAL2     0.900000E-01   1.00800           0
     10097 MEMB     87       SAPE     C310     CTL2    -0.180000       12.0110           0
     10098 MEMB     87       SAPE     H10X     HAL2     0.900000E-01   1.00800           0
     10099 MEMB     87       SAPE     H10Y     HAL2     0.900000E-01   1.00800           0
     10100 MEMB     87       SAPE     C311     CTL2    -0.180000       12.0110           0
     10101 MEMB     87       SAPE     H11X     HAL2     0.900000E-01   1.00800           0
     10102 MEMB     87       SAPE     H11Y     HAL2     0.900000E-01   1.00800           0
     10103 MEMB     87       SAPE     C312     CTL2    -0.180000       12.0110           0
     10104 MEMB     87       SAPE     H12X     HAL2     0.900000E-01   1.00800           0
     10105 MEMB     87       SAPE     H12Y     HAL2     0.900000E-01   1.00800           0
     10106 MEMB     87       SAPE     C313     CTL2    -0.180000       12.0110           0
     10107 MEMB     87       SAPE     H13X     HAL2     0.900000E-01   1.00800           0
     10108 MEMB     87       SAPE     H13Y     HAL2     0.900000E-01   1.00800           0
     10109 MEMB     87       SAPE     C314     CTL2    -0.180000       12.0110           0
     10110 MEMB     87       SAPE     H14X     HAL2     0.900000E-01   1.00800           0
     10111 MEMB     87       SAPE     H14Y     HAL2     0.900000E-01   1.00800           0
     10112 MEMB     87       SAPE     C315     CTL2    -0.180000       12.0110           0
     10113 MEMB     87       SAPE     H15X     HAL2     0.900000E-01   1.00800           0
     10114 MEMB     87       SAPE     H15Y     HAL2     0.900000E-01   1.00800           0
     10115 MEMB     87       SAPE     C316     CTL2    -0.180000       12.0110           0
     10116 MEMB     87       SAPE     H16X     HAL2     0.900000E-01   1.00800           0
     10117 MEMB     87       SAPE     H16Y     HAL2     0.900000E-01   1.00800           0
     10118 MEMB     87       SAPE     C317     CTL2    -0.180000       12.0110           0
     10119 MEMB     87       SAPE     H17X     HAL2     0.900000E-01   1.00800           0
     10120 MEMB     87       SAPE     H17Y     HAL2     0.900000E-01   1.00800           0
     10121 MEMB     87       SAPE     C318     CTL3    -0.270000       12.0110           0
     10122 MEMB     87       SAPE     H18X     HAL3     0.900000E-01   1.00800           0
     10123 MEMB     87       SAPE     H18Y     HAL3     0.900000E-01   1.00800           0
     10124 MEMB     87       SAPE     H18Z     HAL3     0.900000E-01   1.00800           0
     10125 MEMB     88       CHL1     C3       CRL1     0.140000       12.0110           0
     10126 MEMB     88       CHL1     H3       HGA1     0.900000E-01   1.00800           0
     10127 MEMB     88       CHL1     O3       OHL     -0.660000       15.9994           0
     10128 MEMB     88       CHL1     H3'      HOL      0.430000       1.00800           0
     10129 MEMB     88       CHL1     C4       CRL2    -0.180000       12.0110           0
     10130 MEMB     88       CHL1     H4A      HGA2     0.900000E-01   1.00800           0
     10131 MEMB     88       CHL1     H4B      HGA2     0.900000E-01   1.00800           0
     10132 MEMB     88       CHL1     C5       CEL1      0.00000       12.0110           0
     10133 MEMB     88       CHL1     C6       CEL1    -0.150000       12.0110           0
     10134 MEMB     88       CHL1     H6       HEL1     0.150000       1.00800           0
     10135 MEMB     88       CHL1     C7       CRL2    -0.180000       12.0110           0
     10136 MEMB     88       CHL1     H7A      HGA2     0.900000E-01   1.00800           0
     10137 MEMB     88       CHL1     H7B      HGA2     0.900000E-01   1.00800           0
     10138 MEMB     88       CHL1     C8       CRL1    -0.900000E-01   12.0110           0
     10139 MEMB     88       CHL1     H8       HGA1     0.900000E-01   1.00800           0
     10140 MEMB     88       CHL1     C14      CRL1    -0.900000E-01   12.0110           0
     10141 MEMB     88       CHL1     H14      HGA1     0.900000E-01   1.00800           0
     10142 MEMB     88       CHL1     C15      CRL2    -0.180000       12.0110           0
     10143 MEMB     88       CHL1     H15A     HGA2     0.900000E-01   1.00800           0
     10144 MEMB     88       CHL1     H15B     HGA2     0.900000E-01   1.00800           0
     10145 MEMB     88       CHL1     C16      CRL2    -0.180000       12.0110           0
     10146 MEMB     88       CHL1     H16A     HGA2     0.900000E-01   1.00800           0
     10147 MEMB     88       CHL1     H16B     HGA2     0.900000E-01   1.00800           0
     10148 MEMB     88       CHL1     C17      CRL1    -0.900000E-01   12.0110           0
     10149 MEMB     88       CHL1     H17      HGA1     0.900000E-01   1.00800           0
     10150 MEMB     88       CHL1     C13      CRL1      0.00000       12.0110           0
     10151 MEMB     88       CHL1     C18      CTL3    -0.270000       12.0110           0
     10152 MEMB     88       CHL1     H18A     HAL3     0.900000E-01   1.00800           0
     10153 MEMB     88       CHL1     H18B     HAL3     0.900000E-01   1.00800           0
     10154 MEMB     88       CHL1     H18C     HAL3     0.900000E-01   1.00800           0
     10155 MEMB     88       CHL1     C12      CRL2    -0.180000       12.0110           0
     10156 MEMB     88       CHL1     H12A     HGA2     0.900000E-01   1.00800           0
     10157 MEMB     88       CHL1     H12B     HGA2     0.900000E-01   1.00800           0
     10158 MEMB     88       CHL1     C11      CRL2    -0.180000       12.0110           0
     10159 MEMB     88       CHL1     H11A     HGA2     0.900000E-01   1.00800           0
     10160 MEMB     88       CHL1     H11B     HGA2     0.900000E-01   1.00800           0
     10161 MEMB     88       CHL1     C9       CRL1    -0.900000E-01   12.0110           0
     10162 MEMB     88       CHL1     H9       HGA1     0.900000E-01   1.00800           0
     10163 MEMB     88       CHL1     C10      CRL1      0.00000       12.0110           0
     10164 MEMB     88       CHL1     C19      CTL3    -0.270000       12.0110           0
     10165 MEMB     88       CHL1     H19A     HAL3     0.900000E-01   1.00800           0
     10166 MEMB     88       CHL1     H19B     HAL3     0.900000E-01   1.00800           0
     10167 MEMB     88       CHL1     H19C     HAL3     0.900000E-01   1.00800           0
     10168 MEMB     88       CHL1     C1       CRL2    -0.180000       12.0110           0
     10169 MEMB     88       CHL1     H1A      HGA2     0.900000E-01   1.00800           0
     10170 MEMB     88       CHL1     H1B      HGA2     0.900000E-01   1.00800           0
     10171 MEMB     88       CHL1     C2       CRL2    -0.180000       12.0110           0
     10172 MEMB     88       CHL1     H2A      HGA2     0.900000E-01   1.00800           0
     10173 MEMB     88       CHL1     H2B      HGA2     0.900000E-01   1.00800           0
     10174 MEMB     88       CHL1     C20      CTL1    -0.900000E-01   12.0110           0
     10175 MEMB     88       CHL1     H20      HAL1     0.900000E-01   1.00800           0
     10176 MEMB     88       CHL1     C21      CTL3    -0.270000       12.0110           0
     10177 MEMB     88       CHL1     H21A     HAL3     0.900000E-01   1.00800           0
     10178 MEMB     88       CHL1     H21B     HAL3     0.900000E-01   1.00800           0
     10179 MEMB     88       CHL1     H21C     HAL3     0.900000E-01   1.00800           0
     10180 MEMB     88       CHL1     C22      CTL2    -0.180000       12.0110           0
     10181 MEMB     88       CHL1     H22A     HAL2     0.900000E-01   1.00800           0
     10182 MEMB     88       CHL1     H22B     HAL2     0.900000E-01   1.00800           0
     10183 MEMB     88       CHL1     C23      CTL2    -0.180000       12.0110           0
     10184 MEMB     88       CHL1     H23A     HAL2     0.900000E-01   1.00800           0
     10185 MEMB     88       CHL1     H23B     HAL2     0.900000E-01   1.00800           0
     10186 MEMB     88       CHL1     C24      CTL2    -0.180000       12.0110           0
     10187 MEMB     88       CHL1     H24A     HAL2     0.900000E-01   1.00800           0
     10188 MEMB     88       CHL1     H24B     HAL2     0.900000E-01   1.00800           0
     10189 MEMB     88       CHL1     C25      CTL1    -0.900000E-01   12.0110           0
     10190 MEMB     88       CHL1     H25      HAL1     0.900000E-01   1.00800           0
     10191 MEMB     88       CHL1     C26      CTL3    -0.270000       12.0110           0
     10192 MEMB     88       CHL1     H26A     HAL3     0.900000E-01   1.00800           0
     10193 MEMB     88       CHL1     H26B     HAL3     0.900000E-01   1.00800           0
     10194 MEMB     88       CHL1     H26C     HAL3     0.900000E-01   1.00800           0
     10195 MEMB     88       CHL1     C27      CTL3    -0.270000       12.0110           0
     10196 MEMB     88       CHL1     H27A     HAL3     0.900000E-01   1.00800           0
     10197 MEMB     88       CHL1     H27B     HAL3     0.900000E-01   1.00800           0
     10198 MEMB     88       CHL1     H27C     HAL3     0.900000E-01   1.00800           0
     10199 MEMB     89       SLPC     N        NTL     -0.600000       14.0070           0
     10200 MEMB     89       SLPC     C13      CTL5    -0.350000       12.0110           0
     10201 MEMB     89       SLPC     H13A     HL       0.250000       1.00800           0
     10202 MEMB     89       SLPC     H13B     HL       0.250000       1.00800           0
     10203 MEMB     89       SLPC     H13C     HL       0.250000       1.00800           0
     10204 MEMB     89       SLPC     C14      CTL5    -0.350000       12.0110           0
     10205 MEMB     89       SLPC     H14A     HL       0.250000       1.00800           0
     10206 MEMB     89       SLPC     H14B     HL       0.250000       1.00800           0
     10207 MEMB     89       SLPC     H14C     HL       0.250000       1.00800           0
     10208 MEMB     89       SLPC     C15      CTL5    -0.350000       12.0110           0
     10209 MEMB     89       SLPC     H15A     HL       0.250000       1.00800           0
     10210 MEMB     89       SLPC     H15B     HL       0.250000       1.00800           0
     10211 MEMB     89       SLPC     H15C     HL       0.250000       1.00800           0
     10212 MEMB     89       SLPC     C12      CTL2    -0.100000       12.0110           0
     10213 MEMB     89       SLPC     H12A     HL       0.250000       1.00800           0
     10214 MEMB     89       SLPC     H12B     HL       0.250000       1.00800           0
     10215 MEMB     89       SLPC     C11      CTL2    -0.800000E-01   12.0110           0
     10216 MEMB     89       SLPC     H11A     HAL2     0.900000E-01   1.00800           0
     10217 MEMB     89       SLPC     H11B     HAL2     0.900000E-01   1.00800           0
     10218 MEMB     89       SLPC     P        PL        1.50000       30.9740           0
     10219 MEMB     89       SLPC     O13      O2L     -0.780000       15.9994           0
     10220 MEMB     89       SLPC     O14      O2L     -0.780000       15.9994           0
     10221 MEMB     89       SLPC     O12      OSLP    -0.570000       15.9994           0
     10222 MEMB     89       SLPC     O11      OSLP    -0.570000       15.9994           0
     10223 MEMB     89       SLPC     C1       CTL2    -0.800000E-01   12.0110           0
     10224 MEMB     89       SLPC     HA       HAL2     0.900000E-01   1.00800           0
     10225 MEMB     89       SLPC     HB       HAL2     0.900000E-01   1.00800           0
     10226 MEMB     89       SLPC     C2       CTL1     0.170000       12.0110           0
     10227 MEMB     89       SLPC     HS       HAL1     0.900000E-01   1.00800           0
     10228 MEMB     89       SLPC     O21      OSL     -0.490000       15.9994           0
     10229 MEMB     89       SLPC     C21      CL       0.900000       12.0110           0
     10230 MEMB     89       SLPC     O22      OBL     -0.630000       15.9994           0
     10231 MEMB     89       SLPC     C22      CTL2    -0.220000       12.0110           0
     10232 MEMB     89       SLPC     H2R      HAL2     0.900000E-01   1.00800           0
     10233 MEMB     89       SLPC     H2S      HAL2     0.900000E-01   1.00800           0
     10234 MEMB     89       SLPC     C3       CTL2     0.800000E-01   12.0110           0
     10235 MEMB     89       SLPC     HX       HAL2     0.900000E-01   1.00800           0
     10236 MEMB     89       SLPC     HY       HAL2     0.900000E-01   1.00800           0
     10237 MEMB     89       SLPC     O31      OSL     -0.490000       15.9994           0
     10238 MEMB     89       SLPC     C31      CL       0.900000       12.0110           0
     10239 MEMB     89       SLPC     O32      OBL     -0.630000       15.9994           0
     10240 MEMB     89       SLPC     C32      CTL2    -0.220000       12.0110           0
     10241 MEMB     89       SLPC     H2X      HAL2     0.900000E-01   1.00800           0
     10242 MEMB     89       SLPC     H2Y      HAL2     0.900000E-01   1.00800           0
     10243 MEMB     89       SLPC     C23      CTL2    -0.180000       12.0110           0
     10244 MEMB     89       SLPC     H3R      HAL2     0.900000E-01   1.00800           0
     10245 MEMB     89       SLPC     H3S      HAL2     0.900000E-01   1.00800           0
     10246 MEMB     89       SLPC     C24      CTL2    -0.180000       12.0110           0
     10247 MEMB     89       SLPC     H4R      HAL2     0.900000E-01   1.00800           0
     10248 MEMB     89       SLPC     H4S      HAL2     0.900000E-01   1.00800           0
     10249 MEMB     89       SLPC     C25      CTL2    -0.180000       12.0110           0
     10250 MEMB     89       SLPC     H5R      HAL2     0.900000E-01   1.00800           0
     10251 MEMB     89       SLPC     H5S      HAL2     0.900000E-01   1.00800           0
     10252 MEMB     89       SLPC     C26      CTL2    -0.180000       12.0110           0
     10253 MEMB     89       SLPC     H6R      HAL2     0.900000E-01   1.00800           0
     10254 MEMB     89       SLPC     H6S      HAL2     0.900000E-01   1.00800           0
     10255 MEMB     89       SLPC     C27      CTL2    -0.180000       12.0110           0
     10256 MEMB     89       SLPC     H7R      HAL2     0.900000E-01   1.00800           0
     10257 MEMB     89       SLPC     H7S      HAL2     0.900000E-01   1.00800           0
     10258 MEMB     89       SLPC     C28      CTL2    -0.180000       12.0110           0
     10259 MEMB     89       SLPC     H8R      HAL2     0.900000E-01   1.00800           0
     10260 MEMB     89       SLPC     H8S      HAL2     0.900000E-01   1.00800           0
     10261 MEMB     89       SLPC     C29      CEL1    -0.150000       12.0110           0
     10262 MEMB     89       SLPC     H9R      HEL1     0.150000       1.00800           0
     10263 MEMB     89       SLPC     C210     CEL1    -0.150000       12.0110           0
     10264 MEMB     89       SLPC     H10R     HEL1     0.150000       1.00800           0
     10265 MEMB     89       SLPC     C211     CTL2    -0.180000       12.0110           0
     10266 MEMB     89       SLPC     H11R     HAL2     0.900000E-01   1.00800           0
     10267 MEMB     89       SLPC     H11S     HAL2     0.900000E-01   1.00800           0
     10268 MEMB     89       SLPC     C212     CEL1    -0.150000       12.0110           0
     10269 MEMB     89       SLPC     H12R     HEL1     0.150000       1.00800           0
     10270 MEMB     89       SLPC     C213     CEL1    -0.150000       12.0110           0
     10271 MEMB     89       SLPC     H13R     HEL1     0.150000       1.00800           0
     10272 MEMB     89       SLPC     C214     CTL2    -0.180000       12.0110           0
     10273 MEMB     89       SLPC     H14R     HAL2     0.900000E-01   1.00800           0
     10274 MEMB     89       SLPC     H14S     HAL2     0.900000E-01   1.00800           0
     10275 MEMB     89       SLPC     C215     CTL2    -0.180000       12.0110           0
     10276 MEMB     89       SLPC     H15R     HAL2     0.900000E-01   1.00800           0
     10277 MEMB     89       SLPC     H15S     HAL2     0.900000E-01   1.00800           0
     10278 MEMB     89       SLPC     C216     CTL2    -0.180000       12.0110           0
     10279 MEMB     89       SLPC     H16R     HAL2     0.900000E-01   1.00800           0
     10280 MEMB     89       SLPC     H16S     HAL2     0.900000E-01   1.00800           0
     10281 MEMB     89       SLPC     C217     CTL2    -0.180000       12.0110           0
     10282 MEMB     89       SLPC     H17R     HAL2     0.900000E-01   1.00800           0
     10283 MEMB     89       SLPC     H17S     HAL2     0.900000E-01   1.00800           0
     10284 MEMB     89       SLPC     C218     CTL3    -0.270000       12.0110           0
     10285 MEMB     89       SLPC     H18R     HAL3     0.900000E-01   1.00800           0
     10286 MEMB     89       SLPC     H18S     HAL3     0.900000E-01   1.00800           0
     10287 MEMB     89       SLPC     H18T     HAL3     0.900000E-01   1.00800           0
     10288 MEMB     89       SLPC     C33      CTL2    -0.180000       12.0110           0
     10289 MEMB     89       SLPC     H3X      HAL2     0.900000E-01   1.00800           0
     10290 MEMB     89       SLPC     H3Y      HAL2     0.900000E-01   1.00800           0
     10291 MEMB     89       SLPC     C34      CTL2    -0.180000       12.0110           0
     10292 MEMB     89       SLPC     H4X      HAL2     0.900000E-01   1.00800           0
     10293 MEMB     89       SLPC     H4Y      HAL2     0.900000E-01   1.00800           0
     10294 MEMB     89       SLPC     C35      CTL2    -0.180000       12.0110           0
     10295 MEMB     89       SLPC     H5X      HAL2     0.900000E-01   1.00800           0
     10296 MEMB     89       SLPC     H5Y      HAL2     0.900000E-01   1.00800           0
     10297 MEMB     89       SLPC     C36      CTL2    -0.180000       12.0110           0
     10298 MEMB     89       SLPC     H6X      HAL2     0.900000E-01   1.00800           0
     10299 MEMB     89       SLPC     H6Y      HAL2     0.900000E-01   1.00800           0
     10300 MEMB     89       SLPC     C37      CTL2    -0.180000       12.0110           0
     10301 MEMB     89       SLPC     H7X      HAL2     0.900000E-01   1.00800           0
     10302 MEMB     89       SLPC     H7Y      HAL2     0.900000E-01   1.00800           0
     10303 MEMB     89       SLPC     C38      CTL2    -0.180000       12.0110           0
     10304 MEMB     89       SLPC     H8X      HAL2     0.900000E-01   1.00800           0
     10305 MEMB     89       SLPC     H8Y      HAL2     0.900000E-01   1.00800           0
     10306 MEMB     89       SLPC     C39      CTL2    -0.180000       12.0110           0
     10307 MEMB     89       SLPC     H9X      HAL2     0.900000E-01   1.00800           0
     10308 MEMB     89       SLPC     H9Y      HAL2     0.900000E-01   1.00800           0
     10309 MEMB     89       SLPC     C310     CTL2    -0.180000       12.0110           0
     10310 MEMB     89       SLPC     H10X     HAL2     0.900000E-01   1.00800           0
     10311 MEMB     89       SLPC     H10Y     HAL2     0.900000E-01   1.00800           0
     10312 MEMB     89       SLPC     C311     CTL2    -0.180000       12.0110           0
     10313 MEMB     89       SLPC     H11X     HAL2     0.900000E-01   1.00800           0
     10314 MEMB     89       SLPC     H11Y     HAL2     0.900000E-01   1.00800           0
     10315 MEMB     89       SLPC     C312     CTL2    -0.180000       12.0110           0
     10316 MEMB     89       SLPC     H12X     HAL2     0.900000E-01   1.00800           0
     10317 MEMB     89       SLPC     H12Y     HAL2     0.900000E-01   1.00800           0
     10318 MEMB     89       SLPC     C313     CTL2    -0.180000       12.0110           0
     10319 MEMB     89       SLPC     H13X     HAL2     0.900000E-01   1.00800           0
     10320 MEMB     89       SLPC     H13Y     HAL2     0.900000E-01   1.00800           0
     10321 MEMB     89       SLPC     C314     CTL2    -0.180000       12.0110           0
     10322 MEMB     89       SLPC     H14X     HAL2     0.900000E-01   1.00800           0
     10323 MEMB     89       SLPC     H14Y     HAL2     0.900000E-01   1.00800           0
     10324 MEMB     89       SLPC     C315     CTL2    -0.180000       12.0110           0
     10325 MEMB     89       SLPC     H15X     HAL2     0.900000E-01   1.00800           0
     10326 MEMB     89       SLPC     H15Y     HAL2     0.900000E-01   1.00800           0
     10327 MEMB     89       SLPC     C316     CTL2    -0.180000       12.0110           0
     10328 MEMB     89       SLPC     H16X     HAL2     0.900000E-01   1.00800           0
     10329 MEMB     89       SLPC     H16Y     HAL2     0.900000E-01   1.00800           0
     10330 MEMB     89       SLPC     C317     CTL2    -0.180000       12.0110           0
     10331 MEMB     89       SLPC     H17X     HAL2     0.900000E-01   1.00800           0
     10332 MEMB     89       SLPC     H17Y     HAL2     0.900000E-01   1.00800           0
     10333 MEMB     89       SLPC     C318     CTL3    -0.270000       12.0110           0
     10334 MEMB     89       SLPC     H18X     HAL3     0.900000E-01   1.00800           0
     10335 MEMB     89       SLPC     H18Y     HAL3     0.900000E-01   1.00800           0
     10336 MEMB     89       SLPC     H18Z     HAL3     0.900000E-01   1.00800           0
     10337 MEMB     90       SAPC     N        NTL     -0.600000       14.0070           0
     10338 MEMB     90       SAPC     C12      CTL2    -0.100000       12.0110           0
     10339 MEMB     90       SAPC     H12A     HL       0.250000       1.00800           0
     10340 MEMB     90       SAPC     H12B     HL       0.250000       1.00800           0
     10341 MEMB     90       SAPC     C13      CTL5    -0.350000       12.0110           0
     10342 MEMB     90       SAPC     H13A     HL       0.250000       1.00800           0
     10343 MEMB     90       SAPC     H13B     HL       0.250000       1.00800           0
     10344 MEMB     90       SAPC     H13C     HL       0.250000       1.00800           0
     10345 MEMB     90       SAPC     C14      CTL5    -0.350000       12.0110           0
     10346 MEMB     90       SAPC     H14A     HL       0.250000       1.00800           0
     10347 MEMB     90       SAPC     H14B     HL       0.250000       1.00800           0
     10348 MEMB     90       SAPC     H14C     HL       0.250000       1.00800           0
     10349 MEMB     90       SAPC     C15      CTL5    -0.350000       12.0110           0
     10350 MEMB     90       SAPC     H15A     HL       0.250000       1.00800           0
     10351 MEMB     90       SAPC     H15B     HL       0.250000       1.00800           0
     10352 MEMB     90       SAPC     H15C     HL       0.250000       1.00800           0
     10353 MEMB     90       SAPC     C11      CTL2    -0.800000E-01   12.0110           0
     10354 MEMB     90       SAPC     H11A     HAL2     0.900000E-01   1.00800           0
     10355 MEMB     90       SAPC     H11B     HAL2     0.900000E-01   1.00800           0
     10356 MEMB     90       SAPC     P        PL        1.50000       30.9740           0
     10357 MEMB     90       SAPC     O13      O2L     -0.780000       15.9994           0
     10358 MEMB     90       SAPC     O14      O2L     -0.780000       15.9994           0
     10359 MEMB     90       SAPC     O12      OSLP    -0.570000       15.9994           0
     10360 MEMB     90       SAPC     O11      OSLP    -0.570000       15.9994           0
     10361 MEMB     90       SAPC     C1       CTL2    -0.800000E-01   12.0110           0
     10362 MEMB     90       SAPC     HA       HAL2     0.900000E-01   1.00800           0
     10363 MEMB     90       SAPC     HB       HAL2     0.900000E-01   1.00800           0
     10364 MEMB     90       SAPC     C2       CTL1     0.170000       12.0110           0
     10365 MEMB     90       SAPC     HS       HAL1     0.900000E-01   1.00800           0
     10366 MEMB     90       SAPC     O21      OSL     -0.490000       15.9994           0
     10367 MEMB     90       SAPC     C21      CL       0.900000       12.0110           0
     10368 MEMB     90       SAPC     O22      OBL     -0.630000       15.9994           0
     10369 MEMB     90       SAPC     C22      CTL2    -0.220000       12.0110           0
     10370 MEMB     90       SAPC     H2R      HAL2     0.900000E-01   1.00800           0
     10371 MEMB     90       SAPC     H2S      HAL2     0.900000E-01   1.00800           0
     10372 MEMB     90       SAPC     C3       CTL2     0.800000E-01   12.0110           0
     10373 MEMB     90       SAPC     HX       HAL2     0.900000E-01   1.00800           0
     10374 MEMB     90       SAPC     HY       HAL2     0.900000E-01   1.00800           0
     10375 MEMB     90       SAPC     O31      OSL     -0.490000       15.9994           0
     10376 MEMB     90       SAPC     C31      CL       0.900000       12.0110           0
     10377 MEMB     90       SAPC     O32      OBL     -0.630000       15.9994           0
     10378 MEMB     90       SAPC     C32      CTL2    -0.220000       12.0110           0
     10379 MEMB     90       SAPC     H2X      HAL2     0.900000E-01   1.00800           0
     10380 MEMB     90       SAPC     H2Y      HAL2     0.900000E-01   1.00800           0
     10381 MEMB     90       SAPC     C23      CTL2    -0.180000       12.0110           0
     10382 MEMB     90       SAPC     H3R      HAL2     0.900000E-01   1.00800           0
     10383 MEMB     90       SAPC     H3S      HAL2     0.900000E-01   1.00800           0
     10384 MEMB     90       SAPC     C24      CTL2    -0.180000       12.0110           0
     10385 MEMB     90       SAPC     H4R      HAL2     0.900000E-01   1.00800           0
     10386 MEMB     90       SAPC     H4S      HAL2     0.900000E-01   1.00800           0
     10387 MEMB     90       SAPC     C25      CEL1    -0.150000       12.0110           0
     10388 MEMB     90       SAPC     H5R      HEL1     0.150000       1.00800           0
     10389 MEMB     90       SAPC     C26      CEL1    -0.150000       12.0110           0
     10390 MEMB     90       SAPC     H6R      HEL1     0.150000       1.00800           0
     10391 MEMB     90       SAPC     C27      CTL2    -0.180000       12.0110           0
     10392 MEMB     90       SAPC     H7R      HAL2     0.900000E-01   1.00800           0
     10393 MEMB     90       SAPC     H7S      HAL2     0.900000E-01   1.00800           0
     10394 MEMB     90       SAPC     C28      CEL1    -0.150000       12.0110           0
     10395 MEMB     90       SAPC     H8R      HEL1     0.150000       1.00800           0
     10396 MEMB     90       SAPC     C29      CEL1    -0.150000       12.0110           0
     10397 MEMB     90       SAPC     H9R      HEL1     0.150000       1.00800           0
     10398 MEMB     90       SAPC     C210     CTL2    -0.180000       12.0110           0
     10399 MEMB     90       SAPC     H10R     HAL2     0.900000E-01   1.00800           0
     10400 MEMB     90       SAPC     H10S     HAL2     0.900000E-01   1.00800           0
     10401 MEMB     90       SAPC     C211     CEL1    -0.150000       12.0110           0
     10402 MEMB     90       SAPC     H11R     HEL1     0.150000       1.00800           0
     10403 MEMB     90       SAPC     C212     CEL1    -0.150000       12.0110           0
     10404 MEMB     90       SAPC     H12R     HEL1     0.150000       1.00800           0
     10405 MEMB     90       SAPC     C213     CTL2    -0.180000       12.0110           0
     10406 MEMB     90       SAPC     H13R     HAL2     0.900000E-01   1.00800           0
     10407 MEMB     90       SAPC     H13S     HAL2     0.900000E-01   1.00800           0
     10408 MEMB     90       SAPC     C214     CEL1    -0.150000       12.0110           0
     10409 MEMB     90       SAPC     H14R     HEL1     0.150000       1.00800           0
     10410 MEMB     90       SAPC     C215     CEL1    -0.150000       12.0110           0
     10411 MEMB     90       SAPC     H15R     HEL1     0.150000       1.00800           0
     10412 MEMB     90       SAPC     C216     CTL2    -0.180000       12.0110           0
     10413 MEMB     90       SAPC     H16R     HAL2     0.900000E-01   1.00800           0
     10414 MEMB     90       SAPC     H16S     HAL2     0.900000E-01   1.00800           0
     10415 MEMB     90       SAPC     C217     CTL2    -0.180000       12.0110           0
     10416 MEMB     90       SAPC     H17R     HAL2     0.900000E-01   1.00800           0
     10417 MEMB     90       SAPC     H17S     HAL2     0.900000E-01   1.00800           0
     10418 MEMB     90       SAPC     C218     CTL2    -0.270000       12.0110           0
     10419 MEMB     90       SAPC     H18R     HAL2     0.900000E-01   1.00800           0
     10420 MEMB     90       SAPC     H18S     HAL2     0.900000E-01   1.00800           0
     10421 MEMB     90       SAPC     C219     CTL2    -0.180000       12.0110           0
     10422 MEMB     90       SAPC     H19R     HAL2     0.900000E-01   1.00800           0
     10423 MEMB     90       SAPC     H19S     HAL2     0.900000E-01   1.00800           0
     10424 MEMB     90       SAPC     C220     CTL3    -0.180000       12.0110           0
     10425 MEMB     90       SAPC     H20R     HAL3     0.900000E-01   1.00800           0
     10426 MEMB     90       SAPC     H20S     HAL3     0.900000E-01   1.00800           0
     10427 MEMB     90       SAPC     H20T     HAL3     0.900000E-01   1.00800           0
     10428 MEMB     90       SAPC     C33      CTL2    -0.180000       12.0110           0
     10429 MEMB     90       SAPC     H3X      HAL2     0.900000E-01   1.00800           0
     10430 MEMB     90       SAPC     H3Y      HAL2     0.900000E-01   1.00800           0
     10431 MEMB     90       SAPC     C34      CTL2    -0.180000       12.0110           0
     10432 MEMB     90       SAPC     H4X      HAL2     0.900000E-01   1.00800           0
     10433 MEMB     90       SAPC     H4Y      HAL2     0.900000E-01   1.00800           0
     10434 MEMB     90       SAPC     C35      CTL2    -0.180000       12.0110           0
     10435 MEMB     90       SAPC     H5X      HAL2     0.900000E-01   1.00800           0
     10436 MEMB     90       SAPC     H5Y      HAL2     0.900000E-01   1.00800           0
     10437 MEMB     90       SAPC     C36      CTL2    -0.180000       12.0110           0
     10438 MEMB     90       SAPC     H6X      HAL2     0.900000E-01   1.00800           0
     10439 MEMB     90       SAPC     H6Y      HAL2     0.900000E-01   1.00800           0
     10440 MEMB     90       SAPC     C37      CTL2    -0.180000       12.0110           0
     10441 MEMB     90       SAPC     H7X      HAL2     0.900000E-01   1.00800           0
     10442 MEMB     90       SAPC     H7Y      HAL2     0.900000E-01   1.00800           0
     10443 MEMB     90       SAPC     C38      CTL2    -0.180000       12.0110           0
     10444 MEMB     90       SAPC     H8X      HAL2     0.900000E-01   1.00800           0
     10445 MEMB     90       SAPC     H8Y      HAL2     0.900000E-01   1.00800           0
     10446 MEMB     90       SAPC     C39      CTL2    -0.180000       12.0110           0
     10447 MEMB     90       SAPC     H9X      HAL2     0.900000E-01   1.00800           0
     10448 MEMB     90       SAPC     H9Y      HAL2     0.900000E-01   1.00800           0
     10449 MEMB     90       SAPC     C310     CTL2    -0.180000       12.0110           0
     10450 MEMB     90       SAPC     H10X     HAL2     0.900000E-01   1.00800           0
     10451 MEMB     90       SAPC     H10Y     HAL2     0.900000E-01   1.00800           0
     10452 MEMB     90       SAPC     C311     CTL2    -0.180000       12.0110           0
     10453 MEMB     90       SAPC     H11X     HAL2     0.900000E-01   1.00800           0
     10454 MEMB     90       SAPC     H11Y     HAL2     0.900000E-01   1.00800           0
     10455 MEMB     90       SAPC     C312     CTL2    -0.180000       12.0110           0
     10456 MEMB     90       SAPC     H12X     HAL2     0.900000E-01   1.00800           0
     10457 MEMB     90       SAPC     H12Y     HAL2     0.900000E-01   1.00800           0
     10458 MEMB     90       SAPC     C313     CTL2    -0.180000       12.0110           0
     10459 MEMB     90       SAPC     H13X     HAL2     0.900000E-01   1.00800           0
     10460 MEMB     90       SAPC     H13Y     HAL2     0.900000E-01   1.00800           0
     10461 MEMB     90       SAPC     C314     CTL2    -0.180000       12.0110           0
     10462 MEMB     90       SAPC     H14X     HAL2     0.900000E-01   1.00800           0
     10463 MEMB     90       SAPC     H14Y     HAL2     0.900000E-01   1.00800           0
     10464 MEMB     90       SAPC     C315     CTL2    -0.180000       12.0110           0
     10465 MEMB     90       SAPC     H15X     HAL2     0.900000E-01   1.00800           0
     10466 MEMB     90       SAPC     H15Y     HAL2     0.900000E-01   1.00800           0
     10467 MEMB     90       SAPC     C316     CTL2    -0.180000       12.0110           0
     10468 MEMB     90       SAPC     H16X     HAL2     0.900000E-01   1.00800           0
     10469 MEMB     90       SAPC     H16Y     HAL2     0.900000E-01   1.00800           0
     10470 MEMB     90       SAPC     C317     CTL2    -0.180000       12.0110           0
     10471 MEMB     90       SAPC     H17X     HAL2     0.900000E-01   1.00800           0
     10472 MEMB     90       SAPC     H17Y     HAL2     0.900000E-01   1.00800           0
     10473 MEMB     90       SAPC     C318     CTL3    -0.270000       12.0110           0
     10474 MEMB     90       SAPC     H18X     HAL3     0.900000E-01   1.00800           0
     10475 MEMB     90       SAPC     H18Y     HAL3     0.900000E-01   1.00800           0
     10476 MEMB     90       SAPC     H18Z     HAL3     0.900000E-01   1.00800           0
     10477 MEMB     91       CHL1     C3       CRL1     0.140000       12.0110           0
     10478 MEMB     91       CHL1     H3       HGA1     0.900000E-01   1.00800           0
     10479 MEMB     91       CHL1     O3       OHL     -0.660000       15.9994           0
     10480 MEMB     91       CHL1     H3'      HOL      0.430000       1.00800           0
     10481 MEMB     91       CHL1     C4       CRL2    -0.180000       12.0110           0
     10482 MEMB     91       CHL1     H4A      HGA2     0.900000E-01   1.00800           0
     10483 MEMB     91       CHL1     H4B      HGA2     0.900000E-01   1.00800           0
     10484 MEMB     91       CHL1     C5       CEL1      0.00000       12.0110           0
     10485 MEMB     91       CHL1     C6       CEL1    -0.150000       12.0110           0
     10486 MEMB     91       CHL1     H6       HEL1     0.150000       1.00800           0
     10487 MEMB     91       CHL1     C7       CRL2    -0.180000       12.0110           0
     10488 MEMB     91       CHL1     H7A      HGA2     0.900000E-01   1.00800           0
     10489 MEMB     91       CHL1     H7B      HGA2     0.900000E-01   1.00800           0
     10490 MEMB     91       CHL1     C8       CRL1    -0.900000E-01   12.0110           0
     10491 MEMB     91       CHL1     H8       HGA1     0.900000E-01   1.00800           0
     10492 MEMB     91       CHL1     C14      CRL1    -0.900000E-01   12.0110           0
     10493 MEMB     91       CHL1     H14      HGA1     0.900000E-01   1.00800           0
     10494 MEMB     91       CHL1     C15      CRL2    -0.180000       12.0110           0
     10495 MEMB     91       CHL1     H15A     HGA2     0.900000E-01   1.00800           0
     10496 MEMB     91       CHL1     H15B     HGA2     0.900000E-01   1.00800           0
     10497 MEMB     91       CHL1     C16      CRL2    -0.180000       12.0110           0
     10498 MEMB     91       CHL1     H16A     HGA2     0.900000E-01   1.00800           0
     10499 MEMB     91       CHL1     H16B     HGA2     0.900000E-01   1.00800           0
     10500 MEMB     91       CHL1     C17      CRL1    -0.900000E-01   12.0110           0
     10501 MEMB     91       CHL1     H17      HGA1     0.900000E-01   1.00800           0
     10502 MEMB     91       CHL1     C13      CRL1      0.00000       12.0110           0
     10503 MEMB     91       CHL1     C18      CTL3    -0.270000       12.0110           0
     10504 MEMB     91       CHL1     H18A     HAL3     0.900000E-01   1.00800           0
     10505 MEMB     91       CHL1     H18B     HAL3     0.900000E-01   1.00800           0
     10506 MEMB     91       CHL1     H18C     HAL3     0.900000E-01   1.00800           0
     10507 MEMB     91       CHL1     C12      CRL2    -0.180000       12.0110           0
     10508 MEMB     91       CHL1     H12A     HGA2     0.900000E-01   1.00800           0
     10509 MEMB     91       CHL1     H12B     HGA2     0.900000E-01   1.00800           0
     10510 MEMB     91       CHL1     C11      CRL2    -0.180000       12.0110           0
     10511 MEMB     91       CHL1     H11A     HGA2     0.900000E-01   1.00800           0
     10512 MEMB     91       CHL1     H11B     HGA2     0.900000E-01   1.00800           0
     10513 MEMB     91       CHL1     C9       CRL1    -0.900000E-01   12.0110           0
     10514 MEMB     91       CHL1     H9       HGA1     0.900000E-01   1.00800           0
     10515 MEMB     91       CHL1     C10      CRL1      0.00000       12.0110           0
     10516 MEMB     91       CHL1     C19      CTL3    -0.270000       12.0110           0
     10517 MEMB     91       CHL1     H19A     HAL3     0.900000E-01   1.00800           0
     10518 MEMB     91       CHL1     H19B     HAL3     0.900000E-01   1.00800           0
     10519 MEMB     91       CHL1     H19C     HAL3     0.900000E-01   1.00800           0
     10520 MEMB     91       CHL1     C1       CRL2    -0.180000       12.0110           0
     10521 MEMB     91       CHL1     H1A      HGA2     0.900000E-01   1.00800           0
     10522 MEMB     91       CHL1     H1B      HGA2     0.900000E-01   1.00800           0
     10523 MEMB     91       CHL1     C2       CRL2    -0.180000       12.0110           0
     10524 MEMB     91       CHL1     H2A      HGA2     0.900000E-01   1.00800           0
     10525 MEMB     91       CHL1     H2B      HGA2     0.900000E-01   1.00800           0
     10526 MEMB     91       CHL1     C20      CTL1    -0.900000E-01   12.0110           0
     10527 MEMB     91       CHL1     H20      HAL1     0.900000E-01   1.00800           0
     10528 MEMB     91       CHL1     C21      CTL3    -0.270000       12.0110           0
     10529 MEMB     91       CHL1     H21A     HAL3     0.900000E-01   1.00800           0
     10530 MEMB     91       CHL1     H21B     HAL3     0.900000E-01   1.00800           0
     10531 MEMB     91       CHL1     H21C     HAL3     0.900000E-01   1.00800           0
     10532 MEMB     91       CHL1     C22      CTL2    -0.180000       12.0110           0
     10533 MEMB     91       CHL1     H22A     HAL2     0.900000E-01   1.00800           0
     10534 MEMB     91       CHL1     H22B     HAL2     0.900000E-01   1.00800           0
     10535 MEMB     91       CHL1     C23      CTL2    -0.180000       12.0110           0
     10536 MEMB     91       CHL1     H23A     HAL2     0.900000E-01   1.00800           0
     10537 MEMB     91       CHL1     H23B     HAL2     0.900000E-01   1.00800           0
     10538 MEMB     91       CHL1     C24      CTL2    -0.180000       12.0110           0
     10539 MEMB     91       CHL1     H24A     HAL2     0.900000E-01   1.00800           0
     10540 MEMB     91       CHL1     H24B     HAL2     0.900000E-01   1.00800           0
     10541 MEMB     91       CHL1     C25      CTL1    -0.900000E-01   12.0110           0
     10542 MEMB     91       CHL1     H25      HAL1     0.900000E-01   1.00800           0
     10543 MEMB     91       CHL1     C26      CTL3    -0.270000       12.0110           0
     10544 MEMB     91       CHL1     H26A     HAL3     0.900000E-01   1.00800           0
     10545 MEMB     91       CHL1     H26B     HAL3     0.900000E-01   1.00800           0
     10546 MEMB     91       CHL1     H26C     HAL3     0.900000E-01   1.00800           0
     10547 MEMB     91       CHL1     C27      CTL3    -0.270000       12.0110           0
     10548 MEMB     91       CHL1     H27A     HAL3     0.900000E-01   1.00800           0
     10549 MEMB     91       CHL1     H27B     HAL3     0.900000E-01   1.00800           0
     10550 MEMB     91       CHL1     H27C     HAL3     0.900000E-01   1.00800           0
     10551 MEMB     92       SAPE     N        NH3L    -0.300000       14.0070           0
     10552 MEMB     92       SAPE     HN1      HCL      0.330000       1.00800           0
     10553 MEMB     92       SAPE     HN2      HCL      0.330000       1.00800           0
     10554 MEMB     92       SAPE     HN3      HCL      0.330000       1.00800           0
     10555 MEMB     92       SAPE     C12      CTL2     0.130000       12.0110           0
     10556 MEMB     92       SAPE     H12A     HAL2     0.900000E-01   1.00800           0
     10557 MEMB     92       SAPE     H12B     HAL2     0.900000E-01   1.00800           0
     10558 MEMB     92       SAPE     C11      CTL2    -0.800000E-01   12.0110           0
     10559 MEMB     92       SAPE     H11A     HAL2     0.900000E-01   1.00800           0
     10560 MEMB     92       SAPE     H11B     HAL2     0.900000E-01   1.00800           0
     10561 MEMB     92       SAPE     P        PL        1.50000       30.9740           0
     10562 MEMB     92       SAPE     O13      O2L     -0.780000       15.9994           0
     10563 MEMB     92       SAPE     O14      O2L     -0.780000       15.9994           0
     10564 MEMB     92       SAPE     O12      OSLP    -0.570000       15.9994           0
     10565 MEMB     92       SAPE     O11      OSLP    -0.570000       15.9994           0
     10566 MEMB     92       SAPE     C1       CTL2    -0.800000E-01   12.0110           0
     10567 MEMB     92       SAPE     HA       HAL2     0.900000E-01   1.00800           0
     10568 MEMB     92       SAPE     HB       HAL2     0.900000E-01   1.00800           0
     10569 MEMB     92       SAPE     C2       CTL1     0.170000       12.0110           0
     10570 MEMB     92       SAPE     HS       HAL1     0.900000E-01   1.00800           0
     10571 MEMB     92       SAPE     O21      OSL     -0.490000       15.9994           0
     10572 MEMB     92       SAPE     C21      CL       0.900000       12.0110           0
     10573 MEMB     92       SAPE     O22      OBL     -0.630000       15.9994           0
     10574 MEMB     92       SAPE     C22      CTL2    -0.220000       12.0110           0
     10575 MEMB     92       SAPE     H2R      HAL2     0.900000E-01   1.00800           0
     10576 MEMB     92       SAPE     H2S      HAL2     0.900000E-01   1.00800           0
     10577 MEMB     92       SAPE     C3       CTL2     0.800000E-01   12.0110           0
     10578 MEMB     92       SAPE     HX       HAL2     0.900000E-01   1.00800           0
     10579 MEMB     92       SAPE     HY       HAL2     0.900000E-01   1.00800           0
     10580 MEMB     92       SAPE     O31      OSL     -0.490000       15.9994           0
     10581 MEMB     92       SAPE     C31      CL       0.900000       12.0110           0
     10582 MEMB     92       SAPE     O32      OBL     -0.630000       15.9994           0
     10583 MEMB     92       SAPE     C32      CTL2    -0.220000       12.0110           0
     10584 MEMB     92       SAPE     H2X      HAL2     0.900000E-01   1.00800           0
     10585 MEMB     92       SAPE     H2Y      HAL2     0.900000E-01   1.00800           0
     10586 MEMB     92       SAPE     C23      CTL2    -0.180000       12.0110           0
     10587 MEMB     92       SAPE     H3R      HAL2     0.900000E-01   1.00800           0
     10588 MEMB     92       SAPE     H3S      HAL2     0.900000E-01   1.00800           0
     10589 MEMB     92       SAPE     C24      CTL2    -0.180000       12.0110           0
     10590 MEMB     92       SAPE     H4R      HAL2     0.900000E-01   1.00800           0
     10591 MEMB     92       SAPE     H4S      HAL2     0.900000E-01   1.00800           0
     10592 MEMB     92       SAPE     C25      CEL1    -0.150000       12.0110           0
     10593 MEMB     92       SAPE     H5R      HEL1     0.150000       1.00800           0
     10594 MEMB     92       SAPE     C26      CEL1    -0.150000       12.0110           0
     10595 MEMB     92       SAPE     H6R      HEL1     0.150000       1.00800           0
     10596 MEMB     92       SAPE     C27      CTL2    -0.180000       12.0110           0
     10597 MEMB     92       SAPE     H7R      HAL2     0.900000E-01   1.00800           0
     10598 MEMB     92       SAPE     H7S      HAL2     0.900000E-01   1.00800           0
     10599 MEMB     92       SAPE     C28      CEL1    -0.150000       12.0110           0
     10600 MEMB     92       SAPE     H8R      HEL1     0.150000       1.00800           0
     10601 MEMB     92       SAPE     C29      CEL1    -0.150000       12.0110           0
     10602 MEMB     92       SAPE     H9R      HEL1     0.150000       1.00800           0
     10603 MEMB     92       SAPE     C210     CTL2    -0.180000       12.0110           0
     10604 MEMB     92       SAPE     H10R     HAL2     0.900000E-01   1.00800           0
     10605 MEMB     92       SAPE     H10S     HAL2     0.900000E-01   1.00800           0
     10606 MEMB     92       SAPE     C211     CEL1    -0.150000       12.0110           0
     10607 MEMB     92       SAPE     H11R     HEL1     0.150000       1.00800           0
     10608 MEMB     92       SAPE     C212     CEL1    -0.150000       12.0110           0
     10609 MEMB     92       SAPE     H12R     HEL1     0.150000       1.00800           0
     10610 MEMB     92       SAPE     C213     CTL2    -0.180000       12.0110           0
     10611 MEMB     92       SAPE     H13R     HAL2     0.900000E-01   1.00800           0
     10612 MEMB     92       SAPE     H13S     HAL2     0.900000E-01   1.00800           0
     10613 MEMB     92       SAPE     C214     CEL1    -0.150000       12.0110           0
     10614 MEMB     92       SAPE     H14R     HEL1     0.150000       1.00800           0
     10615 MEMB     92       SAPE     C215     CEL1    -0.150000       12.0110           0
     10616 MEMB     92       SAPE     H15R     HEL1     0.150000       1.00800           0
     10617 MEMB     92       SAPE     C216     CTL2    -0.180000       12.0110           0
     10618 MEMB     92       SAPE     H16R     HAL2     0.900000E-01   1.00800           0
     10619 MEMB     92       SAPE     H16S     HAL2     0.900000E-01   1.00800           0
     10620 MEMB     92       SAPE     C217     CTL2    -0.180000       12.0110           0
     10621 MEMB     92       SAPE     H17R     HAL2     0.900000E-01   1.00800           0
     10622 MEMB     92       SAPE     H17S     HAL2     0.900000E-01   1.00800           0
     10623 MEMB     92       SAPE     C218     CTL2    -0.180000       12.0110           0
     10624 MEMB     92       SAPE     H18R     HAL2     0.900000E-01   1.00800           0
     10625 MEMB     92       SAPE     H18S     HAL2     0.900000E-01   1.00800           0
     10626 MEMB     92       SAPE     C219     CTL2    -0.180000       12.0110           0
     10627 MEMB     92       SAPE     H19R     HAL2     0.900000E-01   1.00800           0
     10628 MEMB     92       SAPE     H19S     HAL2     0.900000E-01   1.00800           0
     10629 MEMB     92       SAPE     C220     CTL3    -0.270000       12.0110           0
     10630 MEMB     92       SAPE     H20R     HAL3     0.900000E-01   1.00800           0
     10631 MEMB     92       SAPE     H20S     HAL3     0.900000E-01   1.00800           0
     10632 MEMB     92       SAPE     H20T     HAL3     0.900000E-01   1.00800           0
     10633 MEMB     92       SAPE     C33      CTL2    -0.180000       12.0110           0
     10634 MEMB     92       SAPE     H3X      HAL2     0.900000E-01   1.00800           0
     10635 MEMB     92       SAPE     H3Y      HAL2     0.900000E-01   1.00800           0
     10636 MEMB     92       SAPE     C34      CTL2    -0.180000       12.0110           0
     10637 MEMB     92       SAPE     H4X      HAL2     0.900000E-01   1.00800           0
     10638 MEMB     92       SAPE     H4Y      HAL2     0.900000E-01   1.00800           0
     10639 MEMB     92       SAPE     C35      CTL2    -0.180000       12.0110           0
     10640 MEMB     92       SAPE     H5X      HAL2     0.900000E-01   1.00800           0
     10641 MEMB     92       SAPE     H5Y      HAL2     0.900000E-01   1.00800           0
     10642 MEMB     92       SAPE     C36      CTL2    -0.180000       12.0110           0
     10643 MEMB     92       SAPE     H6X      HAL2     0.900000E-01   1.00800           0
     10644 MEMB     92       SAPE     H6Y      HAL2     0.900000E-01   1.00800           0
     10645 MEMB     92       SAPE     C37      CTL2    -0.180000       12.0110           0
     10646 MEMB     92       SAPE     H7X      HAL2     0.900000E-01   1.00800           0
     10647 MEMB     92       SAPE     H7Y      HAL2     0.900000E-01   1.00800           0
     10648 MEMB     92       SAPE     C38      CTL2    -0.180000       12.0110           0
     10649 MEMB     92       SAPE     H8X      HAL2     0.900000E-01   1.00800           0
     10650 MEMB     92       SAPE     H8Y      HAL2     0.900000E-01   1.00800           0
     10651 MEMB     92       SAPE     C39      CTL2    -0.180000       12.0110           0
     10652 MEMB     92       SAPE     H9X      HAL2     0.900000E-01   1.00800           0
     10653 MEMB     92       SAPE     H9Y      HAL2     0.900000E-01   1.00800           0
     10654 MEMB     92       SAPE     C310     CTL2    -0.180000       12.0110           0
     10655 MEMB     92       SAPE     H10X     HAL2     0.900000E-01   1.00800           0
     10656 MEMB     92       SAPE     H10Y     HAL2     0.900000E-01   1.00800           0
     10657 MEMB     92       SAPE     C311     CTL2    -0.180000       12.0110           0
     10658 MEMB     92       SAPE     H11X     HAL2     0.900000E-01   1.00800           0
     10659 MEMB     92       SAPE     H11Y     HAL2     0.900000E-01   1.00800           0
     10660 MEMB     92       SAPE     C312     CTL2    -0.180000       12.0110           0
     10661 MEMB     92       SAPE     H12X     HAL2     0.900000E-01   1.00800           0
     10662 MEMB     92       SAPE     H12Y     HAL2     0.900000E-01   1.00800           0
     10663 MEMB     92       SAPE     C313     CTL2    -0.180000       12.0110           0
     10664 MEMB     92       SAPE     H13X     HAL2     0.900000E-01   1.00800           0
     10665 MEMB     92       SAPE     H13Y     HAL2     0.900000E-01   1.00800           0
     10666 MEMB     92       SAPE     C314     CTL2    -0.180000       12.0110           0
     10667 MEMB     92       SAPE     H14X     HAL2     0.900000E-01   1.00800           0
     10668 MEMB     92       SAPE     H14Y     HAL2     0.900000E-01   1.00800           0
     10669 MEMB     92       SAPE     C315     CTL2    -0.180000       12.0110           0
     10670 MEMB     92       SAPE     H15X     HAL2     0.900000E-01   1.00800           0
     10671 MEMB     92       SAPE     H15Y     HAL2     0.900000E-01   1.00800           0
     10672 MEMB     92       SAPE     C316     CTL2    -0.180000       12.0110           0
     10673 MEMB     92       SAPE     H16X     HAL2     0.900000E-01   1.00800           0
     10674 MEMB     92       SAPE     H16Y     HAL2     0.900000E-01   1.00800           0
     10675 MEMB     92       SAPE     C317     CTL2    -0.180000       12.0110           0
     10676 MEMB     92       SAPE     H17X     HAL2     0.900000E-01   1.00800           0
     10677 MEMB     92       SAPE     H17Y     HAL2     0.900000E-01   1.00800           0
     10678 MEMB     92       SAPE     C318     CTL3    -0.270000       12.0110           0
     10679 MEMB     92       SAPE     H18X     HAL3     0.900000E-01   1.00800           0
     10680 MEMB     92       SAPE     H18Y     HAL3     0.900000E-01   1.00800           0
     10681 MEMB     92       SAPE     H18Z     HAL3     0.900000E-01   1.00800           0
     10682 MEMB     93       CHL1     C3       CRL1     0.140000       12.0110           0
     10683 MEMB     93       CHL1     H3       HGA1     0.900000E-01   1.00800           0
     10684 MEMB     93       CHL1     O3       OHL     -0.660000       15.9994           0
     10685 MEMB     93       CHL1     H3'      HOL      0.430000       1.00800           0
     10686 MEMB     93       CHL1     C4       CRL2    -0.180000       12.0110           0
     10687 MEMB     93       CHL1     H4A      HGA2     0.900000E-01   1.00800           0
     10688 MEMB     93       CHL1     H4B      HGA2     0.900000E-01   1.00800           0
     10689 MEMB     93       CHL1     C5       CEL1      0.00000       12.0110           0
     10690 MEMB     93       CHL1     C6       CEL1    -0.150000       12.0110           0
     10691 MEMB     93       CHL1     H6       HEL1     0.150000       1.00800           0
     10692 MEMB     93       CHL1     C7       CRL2    -0.180000       12.0110           0
     10693 MEMB     93       CHL1     H7A      HGA2     0.900000E-01   1.00800           0
     10694 MEMB     93       CHL1     H7B      HGA2     0.900000E-01   1.00800           0
     10695 MEMB     93       CHL1     C8       CRL1    -0.900000E-01   12.0110           0
     10696 MEMB     93       CHL1     H8       HGA1     0.900000E-01   1.00800           0
     10697 MEMB     93       CHL1     C14      CRL1    -0.900000E-01   12.0110           0
     10698 MEMB     93       CHL1     H14      HGA1     0.900000E-01   1.00800           0
     10699 MEMB     93       CHL1     C15      CRL2    -0.180000       12.0110           0
     10700 MEMB     93       CHL1     H15A     HGA2     0.900000E-01   1.00800           0
     10701 MEMB     93       CHL1     H15B     HGA2     0.900000E-01   1.00800           0
     10702 MEMB     93       CHL1     C16      CRL2    -0.180000       12.0110           0
     10703 MEMB     93       CHL1     H16A     HGA2     0.900000E-01   1.00800           0
     10704 MEMB     93       CHL1     H16B     HGA2     0.900000E-01   1.00800           0
     10705 MEMB     93       CHL1     C17      CRL1    -0.900000E-01   12.0110           0
     10706 MEMB     93       CHL1     H17      HGA1     0.900000E-01   1.00800           0
     10707 MEMB     93       CHL1     C13      CRL1      0.00000       12.0110           0
     10708 MEMB     93       CHL1     C18      CTL3    -0.270000       12.0110           0
     10709 MEMB     93       CHL1     H18A     HAL3     0.900000E-01   1.00800           0
     10710 MEMB     93       CHL1     H18B     HAL3     0.900000E-01   1.00800           0
     10711 MEMB     93       CHL1     H18C     HAL3     0.900000E-01   1.00800           0
     10712 MEMB     93       CHL1     C12      CRL2    -0.180000       12.0110           0
     10713 MEMB     93       CHL1     H12A     HGA2     0.900000E-01   1.00800           0
     10714 MEMB     93       CHL1     H12B     HGA2     0.900000E-01   1.00800           0
     10715 MEMB     93       CHL1     C11      CRL2    -0.180000       12.0110           0
     10716 MEMB     93       CHL1     H11A     HGA2     0.900000E-01   1.00800           0
     10717 MEMB     93       CHL1     H11B     HGA2     0.900000E-01   1.00800           0
     10718 MEMB     93       CHL1     C9       CRL1    -0.900000E-01   12.0110           0
     10719 MEMB     93       CHL1     H9       HGA1     0.900000E-01   1.00800           0
     10720 MEMB     93       CHL1     C10      CRL1      0.00000       12.0110           0
     10721 MEMB     93       CHL1     C19      CTL3    -0.270000       12.0110           0
     10722 MEMB     93       CHL1     H19A     HAL3     0.900000E-01   1.00800           0
     10723 MEMB     93       CHL1     H19B     HAL3     0.900000E-01   1.00800           0
     10724 MEMB     93       CHL1     H19C     HAL3     0.900000E-01   1.00800           0
     10725 MEMB     93       CHL1     C1       CRL2    -0.180000       12.0110           0
     10726 MEMB     93       CHL1     H1A      HGA2     0.900000E-01   1.00800           0
     10727 MEMB     93       CHL1     H1B      HGA2     0.900000E-01   1.00800           0
     10728 MEMB     93       CHL1     C2       CRL2    -0.180000       12.0110           0
     10729 MEMB     93       CHL1     H2A      HGA2     0.900000E-01   1.00800           0
     10730 MEMB     93       CHL1     H2B      HGA2     0.900000E-01   1.00800           0
     10731 MEMB     93       CHL1     C20      CTL1    -0.900000E-01   12.0110           0
     10732 MEMB     93       CHL1     H20      HAL1     0.900000E-01   1.00800           0
     10733 MEMB     93       CHL1     C21      CTL3    -0.270000       12.0110           0
     10734 MEMB     93       CHL1     H21A     HAL3     0.900000E-01   1.00800           0
     10735 MEMB     93       CHL1     H21B     HAL3     0.900000E-01   1.00800           0
     10736 MEMB     93       CHL1     H21C     HAL3     0.900000E-01   1.00800           0
     10737 MEMB     93       CHL1     C22      CTL2    -0.180000       12.0110           0
     10738 MEMB     93       CHL1     H22A     HAL2     0.900000E-01   1.00800           0
     10739 MEMB     93       CHL1     H22B     HAL2     0.900000E-01   1.00800           0
     10740 MEMB     93       CHL1     C23      CTL2    -0.180000       12.0110           0
     10741 MEMB     93       CHL1     H23A     HAL2     0.900000E-01   1.00800           0
     10742 MEMB     93       CHL1     H23B     HAL2     0.900000E-01   1.00800           0
     10743 MEMB     93       CHL1     C24      CTL2    -0.180000       12.0110           0
     10744 MEMB     93       CHL1     H24A     HAL2     0.900000E-01   1.00800           0
     10745 MEMB     93       CHL1     H24B     HAL2     0.900000E-01   1.00800           0
     10746 MEMB     93       CHL1     C25      CTL1    -0.900000E-01   12.0110           0
     10747 MEMB     93       CHL1     H25      HAL1     0.900000E-01   1.00800           0
     10748 MEMB     93       CHL1     C26      CTL3    -0.270000       12.0110           0
     10749 MEMB     93       CHL1     H26A     HAL3     0.900000E-01   1.00800           0
     10750 MEMB     93       CHL1     H26B     HAL3     0.900000E-01   1.00800           0
     10751 MEMB     93       CHL1     H26C     HAL3     0.900000E-01   1.00800           0
     10752 MEMB     93       CHL1     C27      CTL3    -0.270000       12.0110           0
     10753 MEMB     93       CHL1     H27A     HAL3     0.900000E-01   1.00800           0
     10754 MEMB     93       CHL1     H27B     HAL3     0.900000E-01   1.00800           0
     10755 MEMB     93       CHL1     H27C     HAL3     0.900000E-01   1.00800           0
     10756 MEMB     94       POPC     N        NTL     -0.600000       14.0070           0
     10757 MEMB     94       POPC     C12      CTL2    -0.100000       12.0110           0
     10758 MEMB     94       POPC     H12A     HL       0.250000       1.00800           0
     10759 MEMB     94       POPC     H12B     HL       0.250000       1.00800           0
     10760 MEMB     94       POPC     C13      CTL5    -0.350000       12.0110           0
     10761 MEMB     94       POPC     H13A     HL       0.250000       1.00800           0
     10762 MEMB     94       POPC     H13B     HL       0.250000       1.00800           0
     10763 MEMB     94       POPC     H13C     HL       0.250000       1.00800           0
     10764 MEMB     94       POPC     C14      CTL5    -0.350000       12.0110           0
     10765 MEMB     94       POPC     H14A     HL       0.250000       1.00800           0
     10766 MEMB     94       POPC     H14B     HL       0.250000       1.00800           0
     10767 MEMB     94       POPC     H14C     HL       0.250000       1.00800           0
     10768 MEMB     94       POPC     C15      CTL5    -0.350000       12.0110           0
     10769 MEMB     94       POPC     H15A     HL       0.250000       1.00800           0
     10770 MEMB     94       POPC     H15B     HL       0.250000       1.00800           0
     10771 MEMB     94       POPC     H15C     HL       0.250000       1.00800           0
     10772 MEMB     94       POPC     C11      CTL2    -0.800000E-01   12.0110           0
     10773 MEMB     94       POPC     H11A     HAL2     0.900000E-01   1.00800           0
     10774 MEMB     94       POPC     H11B     HAL2     0.900000E-01   1.00800           0
     10775 MEMB     94       POPC     P        PL        1.50000       30.9740           0
     10776 MEMB     94       POPC     O13      O2L     -0.780000       15.9994           0
     10777 MEMB     94       POPC     O14      O2L     -0.780000       15.9994           0
     10778 MEMB     94       POPC     O12      OSLP    -0.570000       15.9994           0
     10779 MEMB     94       POPC     O11      OSLP    -0.570000       15.9994           0
     10780 MEMB     94       POPC     C1       CTL2    -0.800000E-01   12.0110           0
     10781 MEMB     94       POPC     HA       HAL2     0.900000E-01   1.00800           0
     10782 MEMB     94       POPC     HB       HAL2     0.900000E-01   1.00800           0
     10783 MEMB     94       POPC     C2       CTL1     0.170000       12.0110           0
     10784 MEMB     94       POPC     HS       HAL1     0.900000E-01   1.00800           0
     10785 MEMB     94       POPC     O21      OSL     -0.490000       15.9994           0
     10786 MEMB     94       POPC     C21      CL       0.900000       12.0110           0
     10787 MEMB     94       POPC     O22      OBL     -0.630000       15.9994           0
     10788 MEMB     94       POPC     C22      CTL2    -0.220000       12.0110           0
     10789 MEMB     94       POPC     H2R      HAL2     0.900000E-01   1.00800           0
     10790 MEMB     94       POPC     H2S      HAL2     0.900000E-01   1.00800           0
     10791 MEMB     94       POPC     C3       CTL2     0.800000E-01   12.0110           0
     10792 MEMB     94       POPC     HX       HAL2     0.900000E-01   1.00800           0
     10793 MEMB     94       POPC     HY       HAL2     0.900000E-01   1.00800           0
     10794 MEMB     94       POPC     O31      OSL     -0.490000       15.9994           0
     10795 MEMB     94       POPC     C31      CL       0.900000       12.0110           0
     10796 MEMB     94       POPC     O32      OBL     -0.630000       15.9994           0
     10797 MEMB     94       POPC     C32      CTL2    -0.220000       12.0110           0
     10798 MEMB     94       POPC     H2X      HAL2     0.900000E-01   1.00800           0
     10799 MEMB     94       POPC     H2Y      HAL2     0.900000E-01   1.00800           0
     10800 MEMB     94       POPC     C23      CTL2    -0.180000       12.0110           0
     10801 MEMB     94       POPC     H3R      HAL2     0.900000E-01   1.00800           0
     10802 MEMB     94       POPC     H3S      HAL2     0.900000E-01   1.00800           0
     10803 MEMB     94       POPC     C24      CTL2    -0.180000       12.0110           0
     10804 MEMB     94       POPC     H4R      HAL2     0.900000E-01   1.00800           0
     10805 MEMB     94       POPC     H4S      HAL2     0.900000E-01   1.00800           0
     10806 MEMB     94       POPC     C25      CTL2    -0.180000       12.0110           0
     10807 MEMB     94       POPC     H5R      HAL2     0.900000E-01   1.00800           0
     10808 MEMB     94       POPC     H5S      HAL2     0.900000E-01   1.00800           0
     10809 MEMB     94       POPC     C26      CTL2    -0.180000       12.0110           0
     10810 MEMB     94       POPC     H6R      HAL2     0.900000E-01   1.00800           0
     10811 MEMB     94       POPC     H6S      HAL2     0.900000E-01   1.00800           0
     10812 MEMB     94       POPC     C27      CTL2    -0.180000       12.0110           0
     10813 MEMB     94       POPC     H7R      HAL2     0.900000E-01   1.00800           0
     10814 MEMB     94       POPC     H7S      HAL2     0.900000E-01   1.00800           0
     10815 MEMB     94       POPC     C28      CTL2    -0.180000       12.0110           0
     10816 MEMB     94       POPC     H8R      HAL2     0.900000E-01   1.00800           0
     10817 MEMB     94       POPC     H8S      HAL2     0.900000E-01   1.00800           0
     10818 MEMB     94       POPC     C29      CEL1    -0.150000       12.0110           0
     10819 MEMB     94       POPC     H91      HEL1     0.150000       1.00800           0
     10820 MEMB     94       POPC     C210     CEL1    -0.150000       12.0110           0
     10821 MEMB     94       POPC     H101     HEL1     0.150000       1.00800           0
     10822 MEMB     94       POPC     C211     CTL2    -0.180000       12.0110           0
     10823 MEMB     94       POPC     H11R     HAL2     0.900000E-01   1.00800           0
     10824 MEMB     94       POPC     H11S     HAL2     0.900000E-01   1.00800           0
     10825 MEMB     94       POPC     C212     CTL2    -0.180000       12.0110           0
     10826 MEMB     94       POPC     H12R     HAL2     0.900000E-01   1.00800           0
     10827 MEMB     94       POPC     H12S     HAL2     0.900000E-01   1.00800           0
     10828 MEMB     94       POPC     C213     CTL2    -0.180000       12.0110           0
     10829 MEMB     94       POPC     H13R     HAL2     0.900000E-01   1.00800           0
     10830 MEMB     94       POPC     H13S     HAL2     0.900000E-01   1.00800           0
     10831 MEMB     94       POPC     C214     CTL2    -0.180000       12.0110           0
     10832 MEMB     94       POPC     H14R     HAL2     0.900000E-01   1.00800           0
     10833 MEMB     94       POPC     H14S     HAL2     0.900000E-01   1.00800           0
     10834 MEMB     94       POPC     C215     CTL2    -0.180000       12.0110           0
     10835 MEMB     94       POPC     H15R     HAL2     0.900000E-01   1.00800           0
     10836 MEMB     94       POPC     H15S     HAL2     0.900000E-01   1.00800           0
     10837 MEMB     94       POPC     C216     CTL2    -0.180000       12.0110           0
     10838 MEMB     94       POPC     H16R     HAL2     0.900000E-01   1.00800           0
     10839 MEMB     94       POPC     H16S     HAL2     0.900000E-01   1.00800           0
     10840 MEMB     94       POPC     C217     CTL2    -0.180000       12.0110           0
     10841 MEMB     94       POPC     H17R     HAL2     0.900000E-01   1.00800           0
     10842 MEMB     94       POPC     H17S     HAL2     0.900000E-01   1.00800           0
     10843 MEMB     94       POPC     C218     CTL3    -0.270000       12.0110           0
     10844 MEMB     94       POPC     H18R     HAL3     0.900000E-01   1.00800           0
     10845 MEMB     94       POPC     H18S     HAL3     0.900000E-01   1.00800           0
     10846 MEMB     94       POPC     H18T     HAL3     0.900000E-01   1.00800           0
     10847 MEMB     94       POPC     C33      CTL2    -0.180000       12.0110           0
     10848 MEMB     94       POPC     H3X      HAL2     0.900000E-01   1.00800           0
     10849 MEMB     94       POPC     H3Y      HAL2     0.900000E-01   1.00800           0
     10850 MEMB     94       POPC     C34      CTL2    -0.180000       12.0110           0
     10851 MEMB     94       POPC     H4X      HAL2     0.900000E-01   1.00800           0
     10852 MEMB     94       POPC     H4Y      HAL2     0.900000E-01   1.00800           0
     10853 MEMB     94       POPC     C35      CTL2    -0.180000       12.0110           0
     10854 MEMB     94       POPC     H5X      HAL2     0.900000E-01   1.00800           0
     10855 MEMB     94       POPC     H5Y      HAL2     0.900000E-01   1.00800           0
     10856 MEMB     94       POPC     C36      CTL2    -0.180000       12.0110           0
     10857 MEMB     94       POPC     H6X      HAL2     0.900000E-01   1.00800           0
     10858 MEMB     94       POPC     H6Y      HAL2     0.900000E-01   1.00800           0
     10859 MEMB     94       POPC     C37      CTL2    -0.180000       12.0110           0
     10860 MEMB     94       POPC     H7X      HAL2     0.900000E-01   1.00800           0
     10861 MEMB     94       POPC     H7Y      HAL2     0.900000E-01   1.00800           0
     10862 MEMB     94       POPC     C38      CTL2    -0.180000       12.0110           0
     10863 MEMB     94       POPC     H8X      HAL2     0.900000E-01   1.00800           0
     10864 MEMB     94       POPC     H8Y      HAL2     0.900000E-01   1.00800           0
     10865 MEMB     94       POPC     C39      CTL2    -0.180000       12.0110           0
     10866 MEMB     94       POPC     H9X      HAL2     0.900000E-01   1.00800           0
     10867 MEMB     94       POPC     H9Y      HAL2     0.900000E-01   1.00800           0
     10868 MEMB     94       POPC     C310     CTL2    -0.180000       12.0110           0
     10869 MEMB     94       POPC     H10X     HAL2     0.900000E-01   1.00800           0
     10870 MEMB     94       POPC     H10Y     HAL2     0.900000E-01   1.00800           0
     10871 MEMB     94       POPC     C311     CTL2    -0.180000       12.0110           0
     10872 MEMB     94       POPC     H11X     HAL2     0.900000E-01   1.00800           0
     10873 MEMB     94       POPC     H11Y     HAL2     0.900000E-01   1.00800           0
     10874 MEMB     94       POPC     C312     CTL2    -0.180000       12.0110           0
     10875 MEMB     94       POPC     H12X     HAL2     0.900000E-01   1.00800           0
     10876 MEMB     94       POPC     H12Y     HAL2     0.900000E-01   1.00800           0
     10877 MEMB     94       POPC     C313     CTL2    -0.180000       12.0110           0
     10878 MEMB     94       POPC     H13X     HAL2     0.900000E-01   1.00800           0
     10879 MEMB     94       POPC     H13Y     HAL2     0.900000E-01   1.00800           0
     10880 MEMB     94       POPC     C314     CTL2    -0.180000       12.0110           0
     10881 MEMB     94       POPC     H14X     HAL2     0.900000E-01   1.00800           0
     10882 MEMB     94       POPC     H14Y     HAL2     0.900000E-01   1.00800           0
     10883 MEMB     94       POPC     C315     CTL2    -0.180000       12.0110           0
     10884 MEMB     94       POPC     H15X     HAL2     0.900000E-01   1.00800           0
     10885 MEMB     94       POPC     H15Y     HAL2     0.900000E-01   1.00800           0
     10886 MEMB     94       POPC     C316     CTL3    -0.270000       12.0110           0
     10887 MEMB     94       POPC     H16X     HAL3     0.900000E-01   1.00800           0
     10888 MEMB     94       POPC     H16Y     HAL3     0.900000E-01   1.00800           0
     10889 MEMB     94       POPC     H16Z     HAL3     0.900000E-01   1.00800           0
     10890 MEMB     95       SAPS     N        NH3L    -0.300000       14.0070           0
     10891 MEMB     95       SAPS     HN1      HCL      0.330000       1.00800           0
     10892 MEMB     95       SAPS     HN2      HCL      0.330000       1.00800           0
     10893 MEMB     95       SAPS     HN3      HCL      0.330000       1.00800           0
     10894 MEMB     95       SAPS     C12      CTL1     0.210000       12.0110           0
     10895 MEMB     95       SAPS     H12A     HBL      0.100000       1.00800           0
     10896 MEMB     95       SAPS     C13      CCL      0.340000       12.0110           0
     10897 MEMB     95       SAPS     O13A     OCL     -0.670000       15.9994           0
     10898 MEMB     95       SAPS     O13B     OCL     -0.670000       15.9994           0
     10899 MEMB     95       SAPS     C11      CTL2    -0.800000E-01   12.0110           0
     10900 MEMB     95       SAPS     H11A     HAL2     0.900000E-01   1.00800           0
     10901 MEMB     95       SAPS     H11B     HAL2     0.900000E-01   1.00800           0
     10902 MEMB     95       SAPS     P        PL        1.50000       30.9740           0
     10903 MEMB     95       SAPS     O13      O2L     -0.780000       15.9994           0
     10904 MEMB     95       SAPS     O14      O2L     -0.780000       15.9994           0
     10905 MEMB     95       SAPS     O12      OSLP    -0.570000       15.9994           0
     10906 MEMB     95       SAPS     O11      OSLP    -0.570000       15.9994           0
     10907 MEMB     95       SAPS     C1       CTL2    -0.800000E-01   12.0110           0
     10908 MEMB     95       SAPS     HA       HAL2     0.900000E-01   1.00800           0
     10909 MEMB     95       SAPS     HB       HAL2     0.900000E-01   1.00800           0
     10910 MEMB     95       SAPS     C2       CTL1     0.170000       12.0110           0
     10911 MEMB     95       SAPS     HS       HAL1     0.900000E-01   1.00800           0
     10912 MEMB     95       SAPS     O21      OSL     -0.490000       15.9994           0
     10913 MEMB     95       SAPS     C21      CL       0.900000       12.0110           0
     10914 MEMB     95       SAPS     O22      OBL     -0.630000       15.9994           0
     10915 MEMB     95       SAPS     C22      CTL2    -0.220000       12.0110           0
     10916 MEMB     95       SAPS     H2R      HAL2     0.900000E-01   1.00800           0
     10917 MEMB     95       SAPS     H2S      HAL2     0.900000E-01   1.00800           0
     10918 MEMB     95       SAPS     C3       CTL2     0.800000E-01   12.0110           0
     10919 MEMB     95       SAPS     HX       HAL2     0.900000E-01   1.00800           0
     10920 MEMB     95       SAPS     HY       HAL2     0.900000E-01   1.00800           0
     10921 MEMB     95       SAPS     O31      OSL     -0.490000       15.9994           0
     10922 MEMB     95       SAPS     C31      CL       0.900000       12.0110           0
     10923 MEMB     95       SAPS     O32      OBL     -0.630000       15.9994           0
     10924 MEMB     95       SAPS     C32      CTL2    -0.220000       12.0110           0
     10925 MEMB     95       SAPS     H2X      HAL2     0.900000E-01   1.00800           0
     10926 MEMB     95       SAPS     H2Y      HAL2     0.900000E-01   1.00800           0
     10927 MEMB     95       SAPS     C23      CTL2    -0.180000       12.0110           0
     10928 MEMB     95       SAPS     H3R      HAL2     0.900000E-01   1.00800           0
     10929 MEMB     95       SAPS     H3S      HAL2     0.900000E-01   1.00800           0
     10930 MEMB     95       SAPS     C24      CTL2    -0.180000       12.0110           0
     10931 MEMB     95       SAPS     H4R      HAL2     0.900000E-01   1.00800           0
     10932 MEMB     95       SAPS     H4S      HAL2     0.900000E-01   1.00800           0
     10933 MEMB     95       SAPS     C25      CEL1    -0.150000       12.0110           0
     10934 MEMB     95       SAPS     H5R      HEL1     0.150000       1.00800           0
     10935 MEMB     95       SAPS     C26      CEL1    -0.150000       12.0110           0
     10936 MEMB     95       SAPS     H6R      HEL1     0.150000       1.00800           0
     10937 MEMB     95       SAPS     C27      CTL2    -0.180000       12.0110           0
     10938 MEMB     95       SAPS     H7R      HAL2     0.900000E-01   1.00800           0
     10939 MEMB     95       SAPS     H7S      HAL2     0.900000E-01   1.00800           0
     10940 MEMB     95       SAPS     C28      CEL1    -0.150000       12.0110           0
     10941 MEMB     95       SAPS     H8R      HEL1     0.150000       1.00800           0
     10942 MEMB     95       SAPS     C29      CEL1    -0.150000       12.0110           0
     10943 MEMB     95       SAPS     H9R      HEL1     0.150000       1.00800           0
     10944 MEMB     95       SAPS     C210     CTL2    -0.180000       12.0110           0
     10945 MEMB     95       SAPS     H10R     HAL2     0.900000E-01   1.00800           0
     10946 MEMB     95       SAPS     H10S     HAL2     0.900000E-01   1.00800           0
     10947 MEMB     95       SAPS     C211     CEL1    -0.150000       12.0110           0
     10948 MEMB     95       SAPS     H11R     HEL1     0.150000       1.00800           0
     10949 MEMB     95       SAPS     C212     CEL1    -0.150000       12.0110           0
     10950 MEMB     95       SAPS     H12R     HEL1     0.150000       1.00800           0
     10951 MEMB     95       SAPS     C213     CTL2    -0.180000       12.0110           0
     10952 MEMB     95       SAPS     H13R     HAL2     0.900000E-01   1.00800           0
     10953 MEMB     95       SAPS     H13S     HAL2     0.900000E-01   1.00800           0
     10954 MEMB     95       SAPS     C214     CEL1    -0.150000       12.0110           0
     10955 MEMB     95       SAPS     H14R     HEL1     0.150000       1.00800           0
     10956 MEMB     95       SAPS     C215     CEL1    -0.150000       12.0110           0
     10957 MEMB     95       SAPS     H15R     HEL1     0.150000       1.00800           0
     10958 MEMB     95       SAPS     C216     CTL2    -0.180000       12.0110           0
     10959 MEMB     95       SAPS     H16R     HAL2     0.900000E-01   1.00800           0
     10960 MEMB     95       SAPS     H16S     HAL2     0.900000E-01   1.00800           0
     10961 MEMB     95       SAPS     C217     CTL2    -0.180000       12.0110           0
     10962 MEMB     95       SAPS     H17R     HAL2     0.900000E-01   1.00800           0
     10963 MEMB     95       SAPS     H17S     HAL2     0.900000E-01   1.00800           0
     10964 MEMB     95       SAPS     C218     CTL2    -0.180000       12.0110           0
     10965 MEMB     95       SAPS     H18R     HAL2     0.900000E-01   1.00800           0
     10966 MEMB     95       SAPS     H18S     HAL2     0.900000E-01   1.00800           0
     10967 MEMB     95       SAPS     C219     CTL2    -0.180000       12.0110           0
     10968 MEMB     95       SAPS     H19R     HAL2     0.900000E-01   1.00800           0
     10969 MEMB     95       SAPS     H19S     HAL2     0.900000E-01   1.00800           0
     10970 MEMB     95       SAPS     C220     CTL3    -0.270000       12.0110           0
     10971 MEMB     95       SAPS     H20R     HAL3     0.900000E-01   1.00800           0
     10972 MEMB     95       SAPS     H20S     HAL3     0.900000E-01   1.00800           0
     10973 MEMB     95       SAPS     H20T     HAL3     0.900000E-01   1.00800           0
     10974 MEMB     95       SAPS     C33      CTL2    -0.180000       12.0110           0
     10975 MEMB     95       SAPS     H3X      HAL2     0.900000E-01   1.00800           0
     10976 MEMB     95       SAPS     H3Y      HAL2     0.900000E-01   1.00800           0
     10977 MEMB     95       SAPS     C34      CTL2    -0.180000       12.0110           0
     10978 MEMB     95       SAPS     H4X      HAL2     0.900000E-01   1.00800           0
     10979 MEMB     95       SAPS     H4Y      HAL2     0.900000E-01   1.00800           0
     10980 MEMB     95       SAPS     C35      CTL2    -0.180000       12.0110           0
     10981 MEMB     95       SAPS     H5X      HAL2     0.900000E-01   1.00800           0
     10982 MEMB     95       SAPS     H5Y      HAL2     0.900000E-01   1.00800           0
     10983 MEMB     95       SAPS     C36      CTL2    -0.180000       12.0110           0
     10984 MEMB     95       SAPS     H6X      HAL2     0.900000E-01   1.00800           0
     10985 MEMB     95       SAPS     H6Y      HAL2     0.900000E-01   1.00800           0
     10986 MEMB     95       SAPS     C37      CTL2    -0.180000       12.0110           0
     10987 MEMB     95       SAPS     H7X      HAL2     0.900000E-01   1.00800           0
     10988 MEMB     95       SAPS     H7Y      HAL2     0.900000E-01   1.00800           0
     10989 MEMB     95       SAPS     C38      CTL2    -0.180000       12.0110           0
     10990 MEMB     95       SAPS     H8X      HAL2     0.900000E-01   1.00800           0
     10991 MEMB     95       SAPS     H8Y      HAL2     0.900000E-01   1.00800           0
     10992 MEMB     95       SAPS     C39      CTL2    -0.180000       12.0110           0
     10993 MEMB     95       SAPS     H9X      HAL2     0.900000E-01   1.00800           0
     10994 MEMB     95       SAPS     H9Y      HAL2     0.900000E-01   1.00800           0
     10995 MEMB     95       SAPS     C310     CTL2    -0.180000       12.0110           0
     10996 MEMB     95       SAPS     H10X     HAL2     0.900000E-01   1.00800           0
     10997 MEMB     95       SAPS     H10Y     HAL2     0.900000E-01   1.00800           0
     10998 MEMB     95       SAPS     C311     CTL2    -0.180000       12.0110           0
     10999 MEMB     95       SAPS     H11X     HAL2     0.900000E-01   1.00800           0
     11000 MEMB     95       SAPS     H11Y     HAL2     0.900000E-01   1.00800           0
     11001 MEMB     95       SAPS     C312     CTL2    -0.180000       12.0110           0
     11002 MEMB     95       SAPS     H12X     HAL2     0.900000E-01   1.00800           0
     11003 MEMB     95       SAPS     H12Y     HAL2     0.900000E-01   1.00800           0
     11004 MEMB     95       SAPS     C313     CTL2    -0.180000       12.0110           0
     11005 MEMB     95       SAPS     H13X     HAL2     0.900000E-01   1.00800           0
     11006 MEMB     95       SAPS     H13Y     HAL2     0.900000E-01   1.00800           0
     11007 MEMB     95       SAPS     C314     CTL2    -0.180000       12.0110           0
     11008 MEMB     95       SAPS     H14X     HAL2     0.900000E-01   1.00800           0
     11009 MEMB     95       SAPS     H14Y     HAL2     0.900000E-01   1.00800           0
     11010 MEMB     95       SAPS     C315     CTL2    -0.180000       12.0110           0
     11011 MEMB     95       SAPS     H15X     HAL2     0.900000E-01   1.00800           0
     11012 MEMB     95       SAPS     H15Y     HAL2     0.900000E-01   1.00800           0
     11013 MEMB     95       SAPS     C316     CTL2    -0.180000       12.0110           0
     11014 MEMB     95       SAPS     H16X     HAL2     0.900000E-01   1.00800           0
     11015 MEMB     95       SAPS     H16Y     HAL2     0.900000E-01   1.00800           0
     11016 MEMB     95       SAPS     C317     CTL2    -0.180000       12.0110           0
     11017 MEMB     95       SAPS     H17X     HAL2     0.900000E-01   1.00800           0
     11018 MEMB     95       SAPS     H17Y     HAL2     0.900000E-01   1.00800           0
     11019 MEMB     95       SAPS     C318     CTL3    -0.270000       12.0110           0
     11020 MEMB     95       SAPS     H18X     HAL3     0.900000E-01   1.00800           0
     11021 MEMB     95       SAPS     H18Y     HAL3     0.900000E-01   1.00800           0
     11022 MEMB     95       SAPS     H18Z     HAL3     0.900000E-01   1.00800           0
     11023 MEMB     96       SLPC     N        NTL     -0.600000       14.0070           0
     11024 MEMB     96       SLPC     C13      CTL5    -0.350000       12.0110           0
     11025 MEMB     96       SLPC     H13A     HL       0.250000       1.00800           0
     11026 MEMB     96       SLPC     H13B     HL       0.250000       1.00800           0
     11027 MEMB     96       SLPC     H13C     HL       0.250000       1.00800           0
     11028 MEMB     96       SLPC     C14      CTL5    -0.350000       12.0110           0
     11029 MEMB     96       SLPC     H14A     HL       0.250000       1.00800           0
     11030 MEMB     96       SLPC     H14B     HL       0.250000       1.00800           0
     11031 MEMB     96       SLPC     H14C     HL       0.250000       1.00800           0
     11032 MEMB     96       SLPC     C15      CTL5    -0.350000       12.0110           0
     11033 MEMB     96       SLPC     H15A     HL       0.250000       1.00800           0
     11034 MEMB     96       SLPC     H15B     HL       0.250000       1.00800           0
     11035 MEMB     96       SLPC     H15C     HL       0.250000       1.00800           0
     11036 MEMB     96       SLPC     C12      CTL2    -0.100000       12.0110           0
     11037 MEMB     96       SLPC     H12A     HL       0.250000       1.00800           0
     11038 MEMB     96       SLPC     H12B     HL       0.250000       1.00800           0
     11039 MEMB     96       SLPC     C11      CTL2    -0.800000E-01   12.0110           0
     11040 MEMB     96       SLPC     H11A     HAL2     0.900000E-01   1.00800           0
     11041 MEMB     96       SLPC     H11B     HAL2     0.900000E-01   1.00800           0
     11042 MEMB     96       SLPC     P        PL        1.50000       30.9740           0
     11043 MEMB     96       SLPC     O13      O2L     -0.780000       15.9994           0
     11044 MEMB     96       SLPC     O14      O2L     -0.780000       15.9994           0
     11045 MEMB     96       SLPC     O12      OSLP    -0.570000       15.9994           0
     11046 MEMB     96       SLPC     O11      OSLP    -0.570000       15.9994           0
     11047 MEMB     96       SLPC     C1       CTL2    -0.800000E-01   12.0110           0
     11048 MEMB     96       SLPC     HA       HAL2     0.900000E-01   1.00800           0
     11049 MEMB     96       SLPC     HB       HAL2     0.900000E-01   1.00800           0
     11050 MEMB     96       SLPC     C2       CTL1     0.170000       12.0110           0
     11051 MEMB     96       SLPC     HS       HAL1     0.900000E-01   1.00800           0
     11052 MEMB     96       SLPC     O21      OSL     -0.490000       15.9994           0
     11053 MEMB     96       SLPC     C21      CL       0.900000       12.0110           0
     11054 MEMB     96       SLPC     O22      OBL     -0.630000       15.9994           0
     11055 MEMB     96       SLPC     C22      CTL2    -0.220000       12.0110           0
     11056 MEMB     96       SLPC     H2R      HAL2     0.900000E-01   1.00800           0
     11057 MEMB     96       SLPC     H2S      HAL2     0.900000E-01   1.00800           0
     11058 MEMB     96       SLPC     C3       CTL2     0.800000E-01   12.0110           0
     11059 MEMB     96       SLPC     HX       HAL2     0.900000E-01   1.00800           0
     11060 MEMB     96       SLPC     HY       HAL2     0.900000E-01   1.00800           0
     11061 MEMB     96       SLPC     O31      OSL     -0.490000       15.9994           0
     11062 MEMB     96       SLPC     C31      CL       0.900000       12.0110           0
     11063 MEMB     96       SLPC     O32      OBL     -0.630000       15.9994           0
     11064 MEMB     96       SLPC     C32      CTL2    -0.220000       12.0110           0
     11065 MEMB     96       SLPC     H2X      HAL2     0.900000E-01   1.00800           0
     11066 MEMB     96       SLPC     H2Y      HAL2     0.900000E-01   1.00800           0
     11067 MEMB     96       SLPC     C23      CTL2    -0.180000       12.0110           0
     11068 MEMB     96       SLPC     H3R      HAL2     0.900000E-01   1.00800           0
     11069 MEMB     96       SLPC     H3S      HAL2     0.900000E-01   1.00800           0
     11070 MEMB     96       SLPC     C24      CTL2    -0.180000       12.0110           0
     11071 MEMB     96       SLPC     H4R      HAL2     0.900000E-01   1.00800           0
     11072 MEMB     96       SLPC     H4S      HAL2     0.900000E-01   1.00800           0
     11073 MEMB     96       SLPC     C25      CTL2    -0.180000       12.0110           0
     11074 MEMB     96       SLPC     H5R      HAL2     0.900000E-01   1.00800           0
     11075 MEMB     96       SLPC     H5S      HAL2     0.900000E-01   1.00800           0
     11076 MEMB     96       SLPC     C26      CTL2    -0.180000       12.0110           0
     11077 MEMB     96       SLPC     H6R      HAL2     0.900000E-01   1.00800           0
     11078 MEMB     96       SLPC     H6S      HAL2     0.900000E-01   1.00800           0
     11079 MEMB     96       SLPC     C27      CTL2    -0.180000       12.0110           0
     11080 MEMB     96       SLPC     H7R      HAL2     0.900000E-01   1.00800           0
     11081 MEMB     96       SLPC     H7S      HAL2     0.900000E-01   1.00800           0
     11082 MEMB     96       SLPC     C28      CTL2    -0.180000       12.0110           0
     11083 MEMB     96       SLPC     H8R      HAL2     0.900000E-01   1.00800           0
     11084 MEMB     96       SLPC     H8S      HAL2     0.900000E-01   1.00800           0
     11085 MEMB     96       SLPC     C29      CEL1    -0.150000       12.0110           0
     11086 MEMB     96       SLPC     H9R      HEL1     0.150000       1.00800           0
     11087 MEMB     96       SLPC     C210     CEL1    -0.150000       12.0110           0
     11088 MEMB     96       SLPC     H10R     HEL1     0.150000       1.00800           0
     11089 MEMB     96       SLPC     C211     CTL2    -0.180000       12.0110           0
     11090 MEMB     96       SLPC     H11R     HAL2     0.900000E-01   1.00800           0
     11091 MEMB     96       SLPC     H11S     HAL2     0.900000E-01   1.00800           0
     11092 MEMB     96       SLPC     C212     CEL1    -0.150000       12.0110           0
     11093 MEMB     96       SLPC     H12R     HEL1     0.150000       1.00800           0
     11094 MEMB     96       SLPC     C213     CEL1    -0.150000       12.0110           0
     11095 MEMB     96       SLPC     H13R     HEL1     0.150000       1.00800           0
     11096 MEMB     96       SLPC     C214     CTL2    -0.180000       12.0110           0
     11097 MEMB     96       SLPC     H14R     HAL2     0.900000E-01   1.00800           0
     11098 MEMB     96       SLPC     H14S     HAL2     0.900000E-01   1.00800           0
     11099 MEMB     96       SLPC     C215     CTL2    -0.180000       12.0110           0
     11100 MEMB     96       SLPC     H15R     HAL2     0.900000E-01   1.00800           0
     11101 MEMB     96       SLPC     H15S     HAL2     0.900000E-01   1.00800           0
     11102 MEMB     96       SLPC     C216     CTL2    -0.180000       12.0110           0
     11103 MEMB     96       SLPC     H16R     HAL2     0.900000E-01   1.00800           0
     11104 MEMB     96       SLPC     H16S     HAL2     0.900000E-01   1.00800           0
     11105 MEMB     96       SLPC     C217     CTL2    -0.180000       12.0110           0
     11106 MEMB     96       SLPC     H17R     HAL2     0.900000E-01   1.00800           0
     11107 MEMB     96       SLPC     H17S     HAL2     0.900000E-01   1.00800           0
     11108 MEMB     96       SLPC     C218     CTL3    -0.270000       12.0110           0
     11109 MEMB     96       SLPC     H18R     HAL3     0.900000E-01   1.00800           0
     11110 MEMB     96       SLPC     H18S     HAL3     0.900000E-01   1.00800           0
     11111 MEMB     96       SLPC     H18T     HAL3     0.900000E-01   1.00800           0
     11112 MEMB     96       SLPC     C33      CTL2    -0.180000       12.0110           0
     11113 MEMB     96       SLPC     H3X      HAL2     0.900000E-01   1.00800           0
     11114 MEMB     96       SLPC     H3Y      HAL2     0.900000E-01   1.00800           0
     11115 MEMB     96       SLPC     C34      CTL2    -0.180000       12.0110           0
     11116 MEMB     96       SLPC     H4X      HAL2     0.900000E-01   1.00800           0
     11117 MEMB     96       SLPC     H4Y      HAL2     0.900000E-01   1.00800           0
     11118 MEMB     96       SLPC     C35      CTL2    -0.180000       12.0110           0
     11119 MEMB     96       SLPC     H5X      HAL2     0.900000E-01   1.00800           0
     11120 MEMB     96       SLPC     H5Y      HAL2     0.900000E-01   1.00800           0
     11121 MEMB     96       SLPC     C36      CTL2    -0.180000       12.0110           0
     11122 MEMB     96       SLPC     H6X      HAL2     0.900000E-01   1.00800           0
     11123 MEMB     96       SLPC     H6Y      HAL2     0.900000E-01   1.00800           0
     11124 MEMB     96       SLPC     C37      CTL2    -0.180000       12.0110           0
     11125 MEMB     96       SLPC     H7X      HAL2     0.900000E-01   1.00800           0
     11126 MEMB     96       SLPC     H7Y      HAL2     0.900000E-01   1.00800           0
     11127 MEMB     96       SLPC     C38      CTL2    -0.180000       12.0110           0
     11128 MEMB     96       SLPC     H8X      HAL2     0.900000E-01   1.00800           0
     11129 MEMB     96       SLPC     H8Y      HAL2     0.900000E-01   1.00800           0
     11130 MEMB     96       SLPC     C39      CTL2    -0.180000       12.0110           0
     11131 MEMB     96       SLPC     H9X      HAL2     0.900000E-01   1.00800           0
     11132 MEMB     96       SLPC     H9Y      HAL2     0.900000E-01   1.00800           0
     11133 MEMB     96       SLPC     C310     CTL2    -0.180000       12.0110           0
     11134 MEMB     96       SLPC     H10X     HAL2     0.900000E-01   1.00800           0
     11135 MEMB     96       SLPC     H10Y     HAL2     0.900000E-01   1.00800           0
     11136 MEMB     96       SLPC     C311     CTL2    -0.180000       12.0110           0
     11137 MEMB     96       SLPC     H11X     HAL2     0.900000E-01   1.00800           0
     11138 MEMB     96       SLPC     H11Y     HAL2     0.900000E-01   1.00800           0
     11139 MEMB     96       SLPC     C312     CTL2    -0.180000       12.0110           0
     11140 MEMB     96       SLPC     H12X     HAL2     0.900000E-01   1.00800           0
     11141 MEMB     96       SLPC     H12Y     HAL2     0.900000E-01   1.00800           0
     11142 MEMB     96       SLPC     C313     CTL2    -0.180000       12.0110           0
     11143 MEMB     96       SLPC     H13X     HAL2     0.900000E-01   1.00800           0
     11144 MEMB     96       SLPC     H13Y     HAL2     0.900000E-01   1.00800           0
     11145 MEMB     96       SLPC     C314     CTL2    -0.180000       12.0110           0
     11146 MEMB     96       SLPC     H14X     HAL2     0.900000E-01   1.00800           0
     11147 MEMB     96       SLPC     H14Y     HAL2     0.900000E-01   1.00800           0
     11148 MEMB     96       SLPC     C315     CTL2    -0.180000       12.0110           0
     11149 MEMB     96       SLPC     H15X     HAL2     0.900000E-01   1.00800           0
     11150 MEMB     96       SLPC     H15Y     HAL2     0.900000E-01   1.00800           0
     11151 MEMB     96       SLPC     C316     CTL2    -0.180000       12.0110           0
     11152 MEMB     96       SLPC     H16X     HAL2     0.900000E-01   1.00800           0
     11153 MEMB     96       SLPC     H16Y     HAL2     0.900000E-01   1.00800           0
     11154 MEMB     96       SLPC     C317     CTL2    -0.180000       12.0110           0
     11155 MEMB     96       SLPC     H17X     HAL2     0.900000E-01   1.00800           0
     11156 MEMB     96       SLPC     H17Y     HAL2     0.900000E-01   1.00800           0
     11157 MEMB     96       SLPC     C318     CTL3    -0.270000       12.0110           0
     11158 MEMB     96       SLPC     H18X     HAL3     0.900000E-01   1.00800           0
     11159 MEMB     96       SLPC     H18Y     HAL3     0.900000E-01   1.00800           0
     11160 MEMB     96       SLPC     H18Z     HAL3     0.900000E-01   1.00800           0
     11161 TIP3     1        TIP3     OH2      OT      -0.834000       15.9994           0
     11162 TIP3     1        TIP3     H1       HT       0.417000       1.00800           0
     11163 TIP3     1        TIP3     H2       HT       0.417000       1.00800           0
     11164 TIP3     2        TIP3     OH2      OT      -0.834000       15.9994           0
     11165 TIP3     2        TIP3     H1       HT       0.417000       1.00800           0
     11166 TIP3     2        TIP3     H2       HT       0.417000       1.00800           0
     11167 TIP3     3        TIP3     OH2      OT      -0.834000       15.9994           0
     11168 TIP3     3        TIP3     H1       HT       0.417000       1.00800           0
     11169 TIP3     3        TIP3     H2       HT       0.417000       1.00800           0
     11170 TIP3     4        TIP3     OH2      OT      -0.834000       15.9994           0
     11171 TIP3     4        TIP3     H1       HT       0.417000       1.00800           0
     11172 TIP3     4        TIP3     H2       HT       0.417000       1.00800           0
     11173 TIP3     5        TIP3     OH2      OT      -0.834000       15.9994           0
     11174 TIP3     5        TIP3     H1       HT       0.417000       1.00800           0
     11175 TIP3     5        TIP3     H2       HT       0.417000       1.00800           0
     11176 TIP3     6        TIP3     OH2      OT      -0.834000       15.9994           0
     11177 TIP3     6        TIP3     H1       HT       0.417000       1.00800           0
     11178 TIP3     6        TIP3     H2       HT       0.417000       1.00800           0
     11179 TIP3     7        TIP3     OH2      OT      -0.834000       15.9994           0
     11180 TIP3     7        TIP3     H1       HT       0.417000       1.00800           0
     11181 TIP3     7        TIP3     H2       HT       0.417000       1.00800           0
     11182 TIP3     8        TIP3     OH2      OT      -0.834000       15.9994           0
     11183 TIP3     8        TIP3     H1       HT       0.417000       1.00800           0
     11184 TIP3     8        TIP3     H2       HT       0.417000       1.00800           0
     11185 TIP3     9        TIP3     OH2      OT      -0.834000       15.9994           0
     11186 TIP3     9        TIP3     H1       HT       0.417000       1.00800           0
     11187 TIP3     9        TIP3     H2       HT       0.417000       1.00800           0
     11188 TIP3     10       TIP3     OH2      OT      -0.834000       15.9994           0
     11189 TIP3     10       TIP3     H1       HT       0.417000       1.00800           0
     11190 TIP3     10       TIP3     H2       HT       0.417000       1.00800           0
     11191 TIP3     11       TIP3     OH2      OT      -0.834000       15.9994           0
     11192 TIP3     11       TIP3     H1       HT       0.417000       1.00800           0
     11193 TIP3     11       TIP3     H2       HT       0.417000       1.00800           0
     11194 TIP3     12       TIP3     OH2      OT      -0.834000       15.9994           0
     11195 TIP3     12       TIP3     H1       HT       0.417000       1.00800           0
     11196 TIP3     12       TIP3     H2       HT       0.417000       1.00800           0
     11197 TIP3     13       TIP3     OH2      OT      -0.834000       15.9994           0
     11198 TIP3     13       TIP3     H1       HT       0.417000       1.00800           0
     11199 TIP3     13       TIP3     H2       HT       0.417000       1.00800           0
     11200 TIP3     14       TIP3     OH2      OT      -0.834000       15.9994           0
     11201 TIP3     14       TIP3     H1       HT       0.417000       1.00800           0
     11202 TIP3     14       TIP3     H2       HT       0.417000       1.00800           0
     11203 TIP3     15       TIP3     OH2      OT      -0.834000       15.9994           0
     11204 TIP3     15       TIP3     H1       HT       0.417000       1.00800           0
     11205 TIP3     15       TIP3     H2       HT       0.417000       1.00800           0
     11206 TIP3     16       TIP3     OH2      OT      -0.834000       15.9994           0
     11207 TIP3     16       TIP3     H1       HT       0.417000       1.00800           0
     11208 TIP3     16       TIP3     H2       HT       0.417000       1.00800           0
     11209 TIP3     17       TIP3     OH2      OT      -0.834000       15.9994           0
     11210 TIP3     17       TIP3     H1       HT       0.417000       1.00800           0
     11211 TIP3     17       TIP3     H2       HT       0.417000       1.00800           0
     11212 TIP3     18       TIP3     OH2      OT      -0.834000       15.9994           0
     11213 TIP3     18       TIP3     H1       HT       0.417000       1.00800           0
     11214 TIP3     18       TIP3     H2       HT       0.417000       1.00800           0
     11215 TIP3     19       TIP3     OH2      OT      -0.834000       15.9994           0
     11216 TIP3     19       TIP3     H1       HT       0.417000       1.00800           0
     11217 TIP3     19       TIP3     H2       HT       0.417000       1.00800           0
     11218 TIP3     20       TIP3     OH2      OT      -0.834000       15.9994           0
     11219 TIP3     20       TIP3     H1       HT       0.417000       1.00800           0
     11220 TIP3     20       TIP3     H2       HT       0.417000       1.00800           0
     11221 TIP3     21       TIP3     OH2      OT      -0.834000       15.9994           0
     11222 TIP3     21       TIP3     H1       HT       0.417000       1.00800           0
     11223 TIP3     21       TIP3     H2       HT       0.417000       1.00800           0
     11224 TIP3     22       TIP3     OH2      OT      -0.834000       15.9994           0
     11225 TIP3     22       TIP3     H1       HT       0.417000       1.00800           0
     11226 TIP3     22       TIP3     H2       HT       0.417000       1.00800           0
     11227 TIP3     23       TIP3     OH2      OT      -0.834000       15.9994           0
     11228 TIP3     23       TIP3     H1       HT       0.417000       1.00800           0
     11229 TIP3     23       TIP3     H2       HT       0.417000       1.00800           0
     11230 TIP3     24       TIP3     OH2      OT      -0.834000       15.9994           0
     11231 TIP3     24       TIP3     H1       HT       0.417000       1.00800           0
     11232 TIP3     24       TIP3     H2       HT       0.417000       1.00800           0
     11233 TIP3     25       TIP3     OH2      OT      -0.834000       15.9994           0
     11234 TIP3     25       TIP3     H1       HT       0.417000       1.00800           0
     11235 TIP3     25       TIP3     H2       HT       0.417000       1.00800           0
     11236 TIP3     26       TIP3     OH2      OT      -0.834000       15.9994           0
     11237 TIP3     26       TIP3     H1       HT       0.417000       1.00800           0
     11238 TIP3     26       TIP3     H2       HT       0.417000       1.00800           0
     11239 TIP3     27       TIP3     OH2      OT      -0.834000       15.9994           0
     11240 TIP3     27       TIP3     H1       HT       0.417000       1.00800           0
     11241 TIP3     27       TIP3     H2       HT       0.417000       1.00800           0
     11242 TIP3     28       TIP3     OH2      OT      -0.834000       15.9994           0
     11243 TIP3     28       TIP3     H1       HT       0.417000       1.00800           0
     11244 TIP3     28       TIP3     H2       HT       0.417000       1.00800           0
     11245 TIP3     29       TIP3     OH2      OT      -0.834000       15.9994           0
     11246 TIP3     29       TIP3     H1       HT       0.417000       1.00800           0
     11247 TIP3     29       TIP3     H2       HT       0.417000       1.00800           0
     11248 TIP3     30       TIP3     OH2      OT      -0.834000       15.9994           0
     11249 TIP3     30       TIP3     H1       HT       0.417000       1.00800           0
     11250 TIP3     30       TIP3     H2       HT       0.417000       1.00800           0
     11251 TIP3     31       TIP3     OH2      OT      -0.834000       15.9994           0
     11252 TIP3     31       TIP3     H1       HT       0.417000       1.00800           0
     11253 TIP3     31       TIP3     H2       HT       0.417000       1.00800           0
     11254 TIP3     32       TIP3     OH2      OT      -0.834000       15.9994           0
     11255 TIP3     32       TIP3     H1       HT       0.417000       1.00800           0
     11256 TIP3     32       TIP3     H2       HT       0.417000       1.00800           0
     11257 TIP3     33       TIP3     OH2      OT      -0.834000       15.9994           0
     11258 TIP3     33       TIP3     H1       HT       0.417000       1.00800           0
     11259 TIP3     33       TIP3     H2       HT       0.417000       1.00800           0
     11260 TIP3     34       TIP3     OH2      OT      -0.834000       15.9994           0
     11261 TIP3     34       TIP3     H1       HT       0.417000       1.00800           0
     11262 TIP3     34       TIP3     H2       HT       0.417000       1.00800           0
     11263 TIP3     35       TIP3     OH2      OT      -0.834000       15.9994           0
     11264 TIP3     35       TIP3     H1       HT       0.417000       1.00800           0
     11265 TIP3     35       TIP3     H2       HT       0.417000       1.00800           0
     11266 TIP3     36       TIP3     OH2      OT      -0.834000       15.9994           0
     11267 TIP3     36       TIP3     H1       HT       0.417000       1.00800           0
     11268 TIP3     36       TIP3     H2       HT       0.417000       1.00800           0
     11269 TIP3     37       TIP3     OH2      OT      -0.834000       15.9994           0
     11270 TIP3     37       TIP3     H1       HT       0.417000       1.00800           0
     11271 TIP3     37       TIP3     H2       HT       0.417000       1.00800           0
     11272 TIP3     38       TIP3     OH2      OT      -0.834000       15.9994           0
     11273 TIP3     38       TIP3     H1       HT       0.417000       1.00800           0
     11274 TIP3     38       TIP3     H2       HT       0.417000       1.00800           0
     11275 TIP3     39       TIP3     OH2      OT      -0.834000       15.9994           0
     11276 TIP3     39       TIP3     H1       HT       0.417000       1.00800           0
     11277 TIP3     39       TIP3     H2       HT       0.417000       1.00800           0
     11278 TIP3     40       TIP3     OH2      OT      -0.834000       15.9994           0
     11279 TIP3     40       TIP3     H1       HT       0.417000       1.00800           0
     11280 TIP3     40       TIP3     H2       HT       0.417000       1.00800           0
     11281 TIP3     41       TIP3     OH2      OT      -0.834000       15.9994           0
     11282 TIP3     41       TIP3     H1       HT       0.417000       1.00800           0
     11283 TIP3     41       TIP3     H2       HT       0.417000       1.00800           0
     11284 TIP3     42       TIP3     OH2      OT      -0.834000       15.9994           0
     11285 TIP3     42       TIP3     H1       HT       0.417000       1.00800           0
     11286 TIP3     42       TIP3     H2       HT       0.417000       1.00800           0
     11287 TIP3     43       TIP3     OH2      OT      -0.834000       15.9994           0
     11288 TIP3     43       TIP3     H1       HT       0.417000       1.00800           0
     11289 TIP3     43       TIP3     H2       HT       0.417000       1.00800           0
     11290 TIP3     44       TIP3     OH2      OT      -0.834000       15.9994           0
     11291 TIP3     44       TIP3     H1       HT       0.417000       1.00800           0
     11292 TIP3     44       TIP3     H2       HT       0.417000       1.00800           0
     11293 TIP3     45       TIP3     OH2      OT      -0.834000       15.9994           0
     11294 TIP3     45       TIP3     H1       HT       0.417000       1.00800           0
     11295 TIP3     45       TIP3     H2       HT       0.417000       1.00800           0
     11296 TIP3     46       TIP3     OH2      OT      -0.834000       15.9994           0
     11297 TIP3     46       TIP3     H1       HT       0.417000       1.00800           0
     11298 TIP3     46       TIP3     H2       HT       0.417000       1.00800           0

     11316 !NBOND: bonds
        76        77        76        78        76        79        76        73
        73        74        73        75        73        70        70        71
        70        72        70        67        67        68        67        69
        67        64        64        65        64        66        64        61
        61        62        61        63        61        58        58        59
        58        60        58        55        55        56        55        57
        55        52        52        53        52        54        52        49
        49        50        49        51        49        46        46        47
        46        48        46        43        43        44        43        45
        43        40        40        41        40        42        40        38
        38        39        36        37        36        32        32        33
        32        34        34        35        32        30        30        31
        30        25        25        26        25        27        25        23
        23        20        24        20        21        20        22        20
        24        17        17        18        17        19        17        14
        14        15        14        16        14         1         1        10
         1         6         1         2        10        11        10        12
        10        13         6         7         6         8         6         9
         2         3         2         4         2         5        30        28
        28        29        28        80        80        82        82        83
        82        84        82        85        85        86        85        87
        85        88        88        89        88        90        88        91
        91        92        91        93        91        94        94        95
        94        96        94        97        97        98        97        99
        97       100       100       101       100       102       100       103
       103       104       105       106       105       107       107       108
       107       109       107       110       110       111       110       112
       110       113       113       114       113       115       113       116
       116       117       116       118       116       119       119       120
       119       121       119       122       122       123       122       124
       122       125       125       126       125       127       125       128
       128       129       128       130       128       131        36        38
       103       105        80        81       132       133       132       134
       132       135       132       136       140       138       138       136
       138       139       136       137       136       141       149       148
       141       142       141       143       141       147       147       144
       144       148       144       145       144       146       149       150
       149       151       149       152       152       153       152       160
       152       154       160       161       160       162       160       163
       154       155       155       157       155       156       157       158
       157       159       157       169       169       170       169       171
       169       172       172       173       172       174       172       175
       175       176       175       177       177       178       177       179
       179       180       179       181       179       182       182       183
       182       184       184       185       184       186       186       187
       186       188       186       189       189       190       189       191
       191       192       191       193       193       194       193       195
       193       196       196       197       196       198       198       199
       198       200       200       201       200       202       200       203
       203       204       203       205       203       206       206       207
       206       208       206       209       209       210       209       211
       209       212       212       213       212       214       212       215
       163       164       164       166       164       165       166       167
       166       168       166       216       216       217       216       218
       216       219       219       220       219       221       219       222
       222       223       222       224       222       225       225       226
       225       227       225       228       228       229       228       230
       228       231       231       232       231       233       231       234
       234       235       234       236       234       237       237       238
       237       239       237       240       240       241       240       242
       240       243       243       244       243       245       243       246
       246       247       246       248       246       249       249       250
       249       251       249       252       252       253       252       254
       252       255       255       256       255       257       255       258
       258       259       258       260       258       261       261       262
       261       263       261       264       265       266       265       267
       265       268       265       269       269       270       269       271
       269       272       272       273       272       274       272       278
       280       279       278       275       275       279       275       276
       275       277       280       281       280       282       280       283
       283       284       283       291       283       285       291       292
       291       293       291       294       285       286       286       288
       286       287       288       289       288       290       288       300
       300       301       300       302       300       303       303       304
       303       305       303       306       306       307       306       308
       308       309       308       310       310       311       310       312
       310       313       313       314       313       315       315       316
       315       317       317       318       317       319       317       320
       320       321       320       322       322       323       322       324
       324       325       324       326       324       327       327       328
       327       329       329       330       329       331       331       332
       331       333       331       334       334       335       334       336
       334       337       337       338       337       339       337       340
       340       341       340       342       340       343       343       344
       343       345       343       346       294       295       295       297
       295       296       297       298       297       299       297       347
       347       348       347       349       347       350       350       351
       350       352       350       353       353       354       353       355
       353       356       356       357       356       358       356       359
       359       360       359       361       359       362       362       363
       362       364       362       365       365       366       365       367
       365       368       368       369       368       370       368       371
       371       372       371       373       371       374       374       375
       374       376       374       377       377       378       377       379
       377       380       380       381       380       382       380       383
       383       384       383       385       383       386       386       387
       386       388       386       389       389       390       389       391
       389       392       392       393       392       394       392       395
       396       398       396       397       398       399       396       442
       442       443       442       444       442       439       439       440
       439       441       396       400       400       401       400       402
       400       403       403       434       434       439       434       435
       435       436       435       437       435       438       403       404
       404       405       404       406       406       407       406       408
       406       409       409       410       409       432       432       433
       432       434       409       411       411       412       411       421
       421       426       426       427       426       428       426       429
       429       430       429       431       429       432       421       422
       422       423       422       424       422       425       411       413
       413       414       413       415       413       416       416       417
       416       418       416       419       419       420       419       421
       419       445       445       446       445       447       447       448
       447       449       447       450       445       451       451       452
       451       453       451       454       454       455       454       456
       454       457       457       458       457       459       457       460
       460       461       460       462       462       463       462       464
       462       465       460       466       466       467       466       468
       466       469       470       471       470       472       470       473
       470       474       474       475       474       476       474       477
       477       478       477       479       477       483       485       484
       483       480       480       484       480       481       480       482
       485       486       485       487       485       488       488       489
       488       496       488       490       496       497       496       498
       496       499       490       491       491       493       491       492
       493       494       493       495       493       505       505       506
       505       507       505       508       508       509       508       510
       508       511       511       512       511       513       513       514
       513       515       515       516       515       517       515       518
       518       519       518       520       520       521       520       522
       522       523       522       524       522       525       525       526
       525       527       527       528       527       529       529       530
       529       531       529       532       532       533       532       534
       534       535       534       536       536       537       536       538
       536       539       539       540       539       541       539       542
       542       543       542       544       542       545       545       546
       545       547       545       548       548       549       548       550
       548       551       499       500       500       502       500       501
       502       503       502       504       502       552       552       553
       552       554       552       555       555       556       555       557
       555       558       558       559       558       560       558       561
       561       562       561       563       561       564       564       565
       564       566       564       567       567       568       567       569
       567       570       570       571       570       572       570       573
       573       574       573       575       573       576       576       577
       576       578       576       579       579       580       579       581
       579       582       582       583       582       584       582       585
       585       586       585       587       585       588       588       589
       588       590       588       591       591       592       591       593
       591       594       594       595       594       596       594       597
       597       598       597       599       597       600       601       603
       601       602       603       604       601       647       647       648
       647       649       647       644       644       645       644       646
       601       605       605       606       605       607       605       608
       608       639       639       644       639       640       640       641
       640       642       640       643       608       609       609       610
       609       611       611       612       611       613       611       614
       614       615       614       637       637       638       637       639
       614       616       616       617       616       626       626       631
       631       632       631       633       631       634       634       635
       634       636       634       637       626       627       627       628
       627       629       627       630       616       618       618       619
       618       620       618       621       621       622       621       623
       621       624       624       625       624       626       624       650
       650       651       650       652       652       653       652       654
       652       655       650       656       656       657       656       658
       656       659       659       660       659       661       659       662
       662       663       662       664       662       665       665       666
       665       667       667       668       667       669       667       670
       665       671       671       672       671       673       671       674
       750       751       750       752       750       753       750       747
       747       748       747       749       747       744       744       745
       744       746       744       741       741       742       741       743
       741       738       738       739       738       740       738       735
       735       736       735       737       735       732       732       733
       732       734       732       729       729       730       729       731
       729       726       726       727       726       728       726       723
       723       724       723       725       723       720       720       721
       720       722       720       717       717       718       717       719
       717       714       714       715       714       716       714       712
       712       713       710       711       710       706       706       707
       706       708       708       709       706       704       704       705
       704       699       699       700       699       701       699       697
       697       694       698       694       695       694       696       694
       698       691       691       692       691       693       691       688
       688       689       688       690       688       675       675       684
       675       680       675       676       684       685       684       686
       684       687       680       681       680       682       680       683
       676       677       676       678       676       679       704       702
       702       703       702       754       754       756       756       757
       756       758       756       759       759       760       759       761
       759       762       762       763       762       764       762       765
       765       766       765       767       765       768       768       769
       768       770       768       771       771       772       771       773
       771       774       774       775       774       776       774       777
       777       778       779       780       779       781       781       782
       781       783       781       784       784       785       784       786
       784       787       787       788       787       789       787       790
       790       791       790       792       790       793       793       794
       793       795       793       796       796       797       796       798
       796       799       799       800       799       801       799       802
       802       803       802       804       802       805       710       712
       777       779       754       755       806       808       806       807
       808       809       806       852       852       853       852       854
       852       849       849       850       849       851       806       810
       810       811       810       812       810       813       813       844
       844       849       844       845       845       846       845       847
       845       848       813       814       814       815       814       816
       816       817       816       818       816       819       819       820
       819       842       842       843       842       844       819       821
       821       822       821       831       831       836       836       837
       836       838       836       839       839       840       839       841
       839       842       831       832       832       833       832       834
       832       835       821       823       823       824       823       825
       823       826       826       827       826       828       826       829
       829       830       829       831       829       855       855       856
       855       857       857       858       857       859       857       860
       855       861       861       862       861       863       861       864
       864       865       864       866       864       867       867       868
       867       869       867       870       870       871       870       872
       872       873       872       874       872       875       870       876
       876       877       876       878       876       879       955       956
       955       957       955       958       955       952       952       953
       952       954       952       949       949       950       949       951
       949       946       946       947       946       948       946       943
       943       944       943       945       943       940       940       941
       940       942       940       937       937       938       937       939
       937       934       934       935       934       936       934       931
       931       932       931       933       931       928       928       929
       928       930       928       925       925       926       925       927
       925       922       922       923       922       924       922       919
       919       920       919       921       919       917       917       918
       915       916       915       911       911       912       911       913
       913       914       911       909       909       910       909       904
       904       905       904       906       904       902       902       899
       903       899       900       899       901       899       903       896
       896       897       896       898       896       893       893       894
       893       895       893       880       880       889       880       885
       880       881       889       890       889       891       889       892
       885       886       885       887       885       888       881       882
       881       883       881       884       909       907       907       908
       907       959       959       961       961       962       961       963
       961       964       964       965       964       966       964       967
       967       968       967       969       967       970       970       971
       970       972       970       973       973       974       973       975
       973       976       976       977       976       978       976       979
       979       980       979       981       979       982       982       983
       984       985       984       986       986       987       986       988
       986       989       989       990       989       991       989       992
       992       993       992       994       992       995       995       996
       995       997       995       998       998       999       998      1000
       998      1001      1001      1002      1001      1003      1001      1004
      1004      1005      1004      1006      1004      1007      1007      1008
      1007      1009      1007      1010       915       917       982       984
       959       960      1011      1013      1011      1012      1013      1014
      1011      1057      1057      1058      1057      1059      1057      1054
      1054      1055      1054      1056      1011      1015      1015      1016
      1015      1017      1015      1018      1018      1049      1049      1054
      1049      1050      1050      1051      1050      1052      1050      1053
      1018      1019      1019      1020      1019      1021      1021      1022
      1021      1023      1021      1024      1024      1025      1024      1047
      1047      1048      1047      1049      1024      1026      1026      1027
      1026      1036      1036      1041      1041      1042      1041      1043
      1041      1044      1044      1045      1044      1046      1044      1047
      1036      1037      1037      1038      1037      1039      1037      1040
      1026      1028      1028      1029      1028      1030      1028      1031
      1031      1032      1031      1033      1031      1034      1034      1035
      1034      1036      1034      1060      1060      1061      1060      1062
      1062      1063      1062      1064      1062      1065      1060      1066
      1066      1067      1066      1068      1066      1069      1069      1070
      1069      1071      1069      1072      1072      1073      1072      1074
      1072      1075      1075      1076      1075      1077      1077      1078
      1077      1079      1077      1080      1075      1081      1081      1082
      1081      1083      1081      1084      1085      1087      1085      1086
      1087      1088      1085      1131      1131      1132      1131      1133
      1131      1128      1128      1129      1128      1130      1085      1089
      1089      1090      1089      1091      1089      1092      1092      1123
      1123      1128      1123      1124      1124      1125      1124      1126
      1124      1127      1092      1093      1093      1094      1093      1095
      1095      1096      1095      1097      1095      1098      1098      1099
      1098      1121      1121      1122      1121      1123      1098      1100
      1100      1101      1100      1110      1110      1115      1115      1116
      1115      1117      1115      1118      1118      1119      1118      1120
      1118      1121      1110      1111      1111      1112      1111      1113
      1111      1114      1100      1102      1102      1103      1102      1104
      1102      1105      1105      1106      1105      1107      1105      1108
      1108      1109      1108      1110      1108      1134      1134      1135
      1134      1136      1136      1137      1136      1138      1136      1139
      1134      1140      1140      1141      1140      1142      1140      1143
      1143      1144      1143      1145      1143      1146      1146      1147
      1146      1148      1146      1149      1149      1150      1149      1151
      1151      1152      1151      1153      1151      1154      1149      1155
      1155      1156      1155      1157      1155      1158      1159      1160
      1159      1161      1159      1162      1159      1163      1163      1164
      1163      1165      1163      1166      1166      1167      1166      1168
      1166      1172      1174      1173      1172      1169      1169      1173
      1169      1170      1169      1171      1174      1175      1174      1176
      1174      1177      1177      1178      1177      1185      1177      1179
      1185      1186      1185      1187      1185      1188      1179      1180
      1180      1182      1180      1181      1182      1183      1182      1184
      1182      1194      1194      1195      1194      1196      1194      1197
      1197      1198      1197      1199      1197      1200      1200      1201
      1200      1202      1202      1203      1202      1204      1204      1205
      1204      1206      1204      1207      1207      1208      1207      1209
      1209      1210      1209      1211      1211      1212      1211      1213
      1211      1214      1214      1215      1214      1216      1216      1217
      1216      1218      1218      1219      1218      1220      1218      1221
      1221      1222      1221      1223      1223      1224      1223      1225
      1225      1226      1225      1227      1225      1228      1228      1229
      1228      1230      1228      1231      1231      1232      1231      1233
      1231      1234      1234      1235      1234      1236      1234      1237
      1237      1238      1237      1239      1237      1240      1188      1189
      1189      1191      1189      1190      1191      1192      1191      1193
      1191      1241      1241      1242      1241      1243      1241      1244
      1244      1245      1244      1246      1244      1247      1247      1248
      1247      1249      1247      1250      1250      1251      1250      1252
      1250      1253      1253      1254      1253      1255      1253      1256
      1256      1257      1256      1258      1256      1259      1259      1260
      1259      1261      1259      1262      1262      1263      1262      1264
      1262      1265      1265      1266      1265      1267      1265      1268
      1268      1269      1268      1270      1268      1271      1271      1272
      1271      1273      1271      1274      1274      1275      1274      1276
      1274      1277      1277      1278      1277      1279      1277      1280
      1280      1281      1280      1282      1280      1283      1283      1284
      1283      1285      1283      1286      1286      1287      1286      1288
      1286      1289      1290      1292      1290      1291      1292      1293
      1290      1336      1336      1337      1336      1338      1336      1333
      1333      1334      1333      1335      1290      1294      1294      1295
      1294      1296      1294      1297      1297      1328      1328      1333
      1328      1329      1329      1330      1329      1331      1329      1332
      1297      1298      1298      1299      1298      1300      1300      1301
      1300      1302      1300      1303      1303      1304      1303      1326
      1326      1327      1326      1328      1303      1305      1305      1306
      1305      1315      1315      1320      1320      1321      1320      1322
      1320      1323      1323      1324      1323      1325      1323      1326
      1315      1316      1316      1317      1316      1318      1316      1319
      1305      1307      1307      1308      1307      1309      1307      1310
      1310      1311      1310      1312      1310      1313      1313      1314
      1313      1315      1313      1339      1339      1340      1339      1341
      1341      1342      1341      1343      1341      1344      1339      1345
      1345      1346      1345      1347      1345      1348      1348      1349
      1348      1350      1348      1351      1351      1352      1351      1353
      1351      1354      1354      1355      1354      1356      1356      1357
      1356      1358      1356      1359      1354      1360      1360      1361
      1360      1362      1360      1363      1364      1365      1364      1369
      1364      1373      1365      1366      1365      1367      1365      1368
      1369      1370      1369      1371      1369      1372      1373      1374
      1373      1375      1373      1376      1364      1377      1377      1378
      1377      1379      1377      1380      1380      1381      1380      1382
      1380      1386      1387      1388      1386      1383      1383      1387
      1383      1384      1383      1385      1388      1389      1388      1390
      1388      1391      1391      1392      1391      1399      1391      1393
      1399      1400      1399      1401      1399      1402      1393      1394
      1394      1396      1394      1395      1396      1397      1396      1398
      1396      1408      1408      1409      1408      1410      1408      1411
      1411      1412      1411      1413      1411      1414      1414      1415
      1414      1416      1414      1417      1417      1418      1417      1419
      1417      1420      1420      1421      1420      1422      1420      1423
      1423      1424      1423      1425      1423      1426      1426      1427
      1426      1428      1428      1429      1428      1430      1430      1431
      1430      1432      1430      1433      1433      1434      1433      1435
      1435      1436      1435      1437      1437      1438      1437      1439
      1437      1440      1440      1441      1440      1442      1440      1443
      1443      1444      1443      1445      1443      1446      1446      1447
      1446      1448      1446      1449      1449      1450      1449      1451
      1449      1452      1402      1403      1403      1405      1403      1404
      1405      1406      1405      1407      1405      1453      1453      1454
      1453      1455      1453      1456      1456      1457      1456      1458
      1456      1459      1459      1460      1459      1461      1459      1462
      1462      1463      1462      1464      1462      1465      1465      1466
      1465      1467      1465      1468      1468      1469      1468      1470
      1468      1471      1471      1472      1471      1473      1471      1474
      1474      1475      1474      1476      1474      1477      1477      1478
      1477      1479      1477      1480      1480      1481      1480      1482
      1480      1483      1483      1484      1483      1485      1483      1486
      1486      1487      1486      1488      1486      1489      1489      1490
      1489      1491      1489      1492      1492      1493      1492      1494
      1492      1495      1495      1496      1495      1497      1495      1498
      1498      1499      1498      1500      1498      1501      1502      1506
      1502      1510      1502      1514      1506      1507      1506      1508
      1506      1509      1510      1511      1510      1512      1510      1513
      1514      1515      1514      1516      1514      1517      1502      1503
      1503      1504      1503      1505      1503      1518      1518      1519
      1518      1520      1518      1524      1525      1526      1524      1521
      1521      1525      1521      1522      1521      1523      1526      1527
      1526      1528      1526      1529      1529      1530      1529      1537
      1529      1531      1537      1538      1537      1539      1537      1540
      1531      1532      1532      1534      1532      1533      1534      1535
      1534      1536      1534      1546      1546      1547      1546      1548
      1546      1549      1549      1550      1549      1551      1549      1552
      1552      1553      1552      1554      1554      1555      1554      1556
      1556      1557      1556      1558      1556      1559      1559      1560
      1559      1561      1561      1562      1561      1563      1563      1564
      1563      1565      1563      1566      1566      1567      1566      1568
      1568      1569      1568      1570      1570      1571      1570      1572
      1570      1573      1573      1574      1573      1575      1575      1576
      1575      1577      1577      1578      1577      1579      1577      1580
      1580      1581      1580      1582      1580      1583      1583      1584
      1583      1585      1583      1586      1586      1587      1586      1588
      1586      1589      1589      1590      1589      1591      1589      1592
      1540      1541      1541      1543      1541      1542      1543      1544
      1543      1545      1543      1593      1593      1594      1593      1595
      1593      1596      1596      1597      1596      1598      1596      1599
      1599      1600      1599      1601      1599      1602      1602      1603
      1602      1604      1602      1605      1605      1606      1605      1607
      1605      1608      1608      1609      1608      1610      1608      1611
      1611      1612      1611      1613      1611      1614      1614      1615
      1614      1616      1614      1617      1617      1618      1617      1619
      1617      1620      1620      1621      1620      1622      1620      1623
      1623      1624      1623      1625      1623      1626      1626      1627
      1626      1628      1626      1629      1629      1630      1629      1631
      1629      1632      1632      1633      1632      1634      1632      1635
      1635      1636      1635      1637      1635      1638      1638      1639
      1638      1640      1638      1641      1642      1646      1642      1650
      1642      1654      1646      1647      1646      1648      1646      1649
      1650      1651      1650      1652      1650      1653      1654      1655
      1654      1656      1654      1657      1642      1643      1643      1644
      1643      1645      1643      1658      1658      1659      1658      1660
      1658      1664      1665      1666      1664      1661      1661      1665
      1661      1662      1661      1663      1666      1667      1666      1668
      1666      1669      1669      1670      1669      1677      1669      1671
      1677      1678      1677      1679      1677      1680      1671      1672
      1672      1674      1672      1673      1674      1675      1674      1676
      1674      1686      1686      1687      1686      1688      1686      1689
      1689      1690      1689      1691      1689      1692      1692      1693
      1692      1694      1694      1695      1694      1696      1696      1697
      1696      1698      1696      1699      1699      1700      1699      1701
      1701      1702      1701      1703      1703      1704      1703      1705
      1703      1706      1706      1707      1706      1708      1708      1709
      1708      1710      1710      1711      1710      1712      1710      1713
      1713      1714      1713      1715      1715      1716      1715      1717
      1717      1718      1717      1719      1717      1720      1720      1721
      1720      1722      1720      1723      1723      1724      1723      1725
      1723      1726      1726      1727      1726      1728      1726      1729
      1729      1730      1729      1731      1729      1732      1680      1681
      1681      1683      1681      1682      1683      1684      1683      1685
      1683      1733      1733      1734      1733      1735      1733      1736
      1736      1737      1736      1738      1736      1739      1739      1740
      1739      1741      1739      1742      1742      1743      1742      1744
      1742      1745      1745      1746      1745      1747      1745      1748
      1748      1749      1748      1750      1748      1751      1751      1752
      1751      1753      1751      1754      1754      1755      1754      1756
      1754      1757      1757      1758      1757      1759      1757      1760
      1760      1761      1760      1762      1760      1763      1763      1764
      1763      1765      1763      1766      1766      1767      1766      1768
      1766      1769      1769      1770      1769      1771      1769      1772
      1772      1773      1772      1774      1772      1775      1775      1776
      1775      1777      1775      1778      1778      1779      1778      1780
      1778      1781      1782      1783      1782      1787      1782      1791
      1783      1784      1783      1785      1783      1786      1787      1788
      1787      1789      1787      1790      1791      1792      1791      1793
      1791      1794      1782      1795      1795      1796      1795      1797
      1795      1798      1798      1799      1798      1800      1798      1804
      1805      1806      1804      1801      1801      1805      1801      1802
      1801      1803      1806      1807      1806      1808      1806      1809
      1809      1810      1809      1817      1809      1811      1817      1818
      1817      1819      1817      1820      1811      1812      1812      1814
      1812      1813      1814      1815      1814      1816      1814      1826
      1826      1827      1826      1828      1826      1829      1829      1830
      1829      1831      1829      1832      1832      1833      1832      1834
      1832      1835      1835      1836      1835      1837      1835      1838
      1838      1839      1838      1840      1838      1841      1841      1842
      1841      1843      1841      1844      1844      1845      1844      1846
      1846      1847      1846      1848      1848      1849      1848      1850
      1848      1851      1851      1852      1851      1853      1853      1854
      1853      1855      1855      1856      1855      1857      1855      1858
      1858      1859      1858      1860      1858      1861      1861      1862
      1861      1863      1861      1864      1864      1865      1864      1866
      1864      1867      1867      1868      1867      1869      1867      1870
      1820      1821      1821      1823      1821      1822      1823      1824
      1823      1825      1823      1871      1871      1872      1871      1873
      1871      1874      1874      1875      1874      1876      1874      1877
      1877      1878      1877      1879      1877      1880      1880      1881
      1880      1882      1880      1883      1883      1884      1883      1885
      1883      1886      1886      1887      1886      1888      1886      1889
      1889      1890      1889      1891      1889      1892      1892      1893
      1892      1894      1892      1895      1895      1896      1895      1897
      1895      1898      1898      1899      1898      1900      1898      1901
      1901      1902      1901      1903      1901      1904      1904      1905
      1904      1906      1904      1907      1907      1908      1907      1909
      1907      1910      1910      1911      1910      1912      1910      1913
      1913      1914      1913      1915      1913      1916      1916      1917
      1916      1918      1916      1919      1920      1921      1920      1922
      1920      1923      1920      1924      1924      1925      1924      1926
      1924      1927      1927      1928      1927      1929      1927      1933
      1935      1934      1933      1930      1930      1934      1930      1931
      1930      1932      1935      1936      1935      1937      1935      1938
      1938      1939      1938      1946      1938      1940      1946      1947
      1946      1948      1946      1949      1940      1941      1941      1943
      1941      1942      1943      1944      1943      1945      1943      1955
      1955      1956      1955      1957      1955      1958      1958      1959
      1958      1960      1958      1961      1961      1962      1961      1963
      1963      1964      1963      1965      1965      1966      1965      1967
      1965      1968      1968      1969      1968      1970      1970      1971
      1970      1972      1972      1973      1972      1974      1972      1975
      1975      1976      1975      1977      1977      1978      1977      1979
      1979      1980      1979      1981      1979      1982      1982      1983
      1982      1984      1984      1985      1984      1986      1986      1987
      1986      1988      1986      1989      1989      1990      1989      1991
      1989      1992      1992      1993      1992      1994      1992      1995
      1995      1996      1995      1997      1995      1998      1998      1999
      1998      2000      1998      2001      1949      1950      1950      1952
      1950      1951      1952      1953      1952      1954      1952      2002
      2002      2003      2002      2004      2002      2005      2005      2006
      2005      2007      2005      2008      2008      2009      2008      2010
      2008      2011      2011      2012      2011      2013      2011      2014
      2014      2015      2014      2016      2014      2017      2017      2018
      2017      2019      2017      2020      2020      2021      2020      2022
      2020      2023      2023      2024      2023      2025      2023      2026
      2026      2027      2026      2028      2026      2029      2029      2030
      2029      2031      2029      2032      2032      2033      2032      2034
      2032      2035      2035      2036      2035      2037      2035      2038
      2038      2039      2038      2040      2038      2041      2041      2042
      2041      2043      2041      2044      2044      2045      2044      2046
      2044      2047      2047      2048      2047      2049      2047      2050
      2051      2053      2051      2052      2053      2054      2051      2097
      2097      2098      2097      2099      2097      2094      2094      2095
      2094      2096      2051      2055      2055      2056      2055      2057
      2055      2058      2058      2089      2089      2094      2089      2090
      2090      2091      2090      2092      2090      2093      2058      2059
      2059      2060      2059      2061      2061      2062      2061      2063
      2061      2064      2064      2065      2064      2087      2087      2088
      2087      2089      2064      2066      2066      2067      2066      2076
      2076      2081      2081      2082      2081      2083      2081      2084
      2084      2085      2084      2086      2084      2087      2076      2077
      2077      2078      2077      2079      2077      2080      2066      2068
      2068      2069      2068      2070      2068      2071      2071      2072
      2071      2073      2071      2074      2074      2075      2074      2076
      2074      2100      2100      2101      2100      2102      2102      2103
      2102      2104      2102      2105      2100      2106      2106      2107
      2106      2108      2106      2109      2109      2110      2109      2111
      2109      2112      2112      2113      2112      2114      2112      2115
      2115      2116      2115      2117      2117      2118      2117      2119
      2117      2120      2115      2121      2121      2122      2121      2123
      2121      2124      2125      2127      2125      2126      2127      2128
      2125      2171      2171      2172      2171      2173      2171      2168
      2168      2169      2168      2170      2125      2129      2129      2130
      2129      2131      2129      2132      2132      2163      2163      2168
      2163      2164      2164      2165      2164      2166      2164      2167
      2132      2133      2133      2134      2133      2135      2135      2136
      2135      2137      2135      2138      2138      2139      2138      2161
      2161      2162      2161      2163      2138      2140      2140      2141
      2140      2150      2150      2155      2155      2156      2155      2157
      2155      2158      2158      2159      2158      2160      2158      2161
      2150      2151      2151      2152      2151      2153      2151      2154
      2140      2142      2142      2143      2142      2144      2142      2145
      2145      2146      2145      2147      2145      2148      2148      2149
      2148      2150      2148      2174      2174      2175      2174      2176
      2176      2177      2176      2178      2176      2179      2174      2180
      2180      2181      2180      2182      2180      2183      2183      2184
      2183      2185      2183      2186      2186      2187      2186      2188
      2186      2189      2189      2190      2189      2191      2191      2192
      2191      2193      2191      2194      2189      2195      2195      2196
      2195      2197      2195      2198      2274      2275      2274      2276
      2274      2277      2274      2271      2271      2272      2271      2273
      2271      2268      2268      2269      2268      2270      2268      2265
      2265      2266      2265      2267      2265      2262      2262      2263
      2262      2264      2262      2259      2259      2260      2259      2261
      2259      2256      2256      2257      2256      2258      2256      2253
      2253      2254      2253      2255      2253      2250      2250      2251
      2250      2252      2250      2247      2247      2248      2247      2249
      2247      2244      2244      2245      2244      2246      2244      2241
      2241      2242      2241      2243      2241      2238      2238      2239
      2238      2240      2238      2236      2236      2237      2234      2235
      2234      2230      2230      2231      2230      2232      2232      2233
      2230      2228      2228      2229      2228      2223      2223      2224
      2223      2225      2223      2221      2221      2218      2222      2218
      2219      2218      2220      2218      2222      2215      2215      2216
      2215      2217      2215      2212      2212      2213      2212      2214
      2212      2199      2199      2208      2199      2204      2199      2200
      2208      2209      2208      2210      2208      2211      2204      2205
      2204      2206      2204      2207      2200      2201      2200      2202
      2200      2203      2228      2226      2226      2227      2226      2278
      2278      2280      2280      2281      2280      2282      2280      2283
      2283      2284      2283      2285      2283      2286      2286      2287
      2286      2288      2286      2289      2289      2290      2289      2291
      2289      2292      2292      2293      2292      2294      2292      2295
      2295      2296      2295      2297      2295      2298      2298      2299
      2298      2300      2298      2301      2301      2302      2303      2304
      2303      2305      2305      2306      2305      2307      2305      2308
      2308      2309      2308      2310      2308      2311      2311      2312
      2311      2313      2311      2314      2314      2315      2314      2316
      2314      2317      2317      2318      2317      2319      2317      2320
      2320      2321      2320      2322      2320      2323      2323      2324
      2323      2325      2323      2326      2326      2327      2326      2328
      2326      2329      2234      2236      2301      2303      2278      2279
      2330      2334      2330      2338      2330      2342      2334      2335
      2334      2336      2334      2337      2338      2339      2338      2340
      2338      2341      2342      2343      2342      2344      2342      2345
      2330      2331      2331      2332      2331      2333      2331      2346
      2346      2347      2346      2348      2346      2352      2353      2354
      2352      2349      2349      2353      2349      2350      2349      2351
      2354      2355      2354      2356      2354      2357      2357      2358
      2357      2365      2357      2359      2365      2366      2365      2367
      2365      2368      2359      2360      2360      2362      2360      2361
      2362      2363      2362      2364      2362      2374      2374      2375
      2374      2376      2374      2377      2377      2378      2377      2379
      2377      2380      2380      2381      2380      2382      2380      2383
      2383      2384      2383      2385      2383      2386      2386      2387
      2386      2388      2386      2389      2389      2390      2389      2391
      2389      2392      2392      2393      2392      2394      2394      2395
      2394      2396      2396      2397      2396      2398      2396      2399
      2399      2400      2399      2401      2399      2402      2402      2403
      2402      2404      2402      2405      2405      2406      2405      2407
      2405      2408      2408      2409      2408      2410      2408      2411
      2411      2412      2411      2413      2411      2414      2414      2415
      2414      2416      2414      2417      2417      2418      2417      2419
      2417      2420      2368      2369      2369      2371      2369      2370
      2371      2372      2371      2373      2371      2421      2421      2422
      2421      2423      2421      2424      2424      2425      2424      2426
      2424      2427      2427      2428      2427      2429      2427      2430
      2430      2431      2430      2432      2430      2433      2433      2434
      2433      2435      2433      2436      2436      2437      2436      2438
      2436      2439      2439      2440      2439      2441      2439      2442
      2442      2443      2442      2444      2442      2445      2445      2446
      2445      2447      2445      2448      2448      2449      2448      2450
      2448      2451      2451      2452      2451      2453      2451      2454
      2454      2455      2454      2456      2454      2457      2457      2458
      2457      2459      2457      2460      2460      2461      2460      2462
      2460      2463      2464      2465      2464      2466      2464      2467
      2464      2468      2472      2470      2470      2468      2470      2471
      2468      2469      2468      2473      2481      2480      2473      2474
      2473      2475      2473      2479      2479      2476      2476      2480
      2476      2477      2476      2478      2481      2482      2481      2483
      2481      2484      2484      2485      2484      2492      2484      2486
      2492      2493      2492      2494      2492      2495      2486      2487
      2487      2489      2487      2488      2489      2490      2489      2491
      2489      2501      2501      2502      2501      2503      2501      2504
      2504      2505      2504      2506      2504      2507      2507      2508
      2507      2509      2509      2510      2509      2511      2511      2512
      2511      2513      2511      2514      2514      2515      2514      2516
      2516      2517      2516      2518      2518      2519      2518      2520
      2518      2521      2521      2522      2521      2523      2523      2524
      2523      2525      2525      2526      2525      2527      2525      2528
      2528      2529      2528      2530      2530      2531      2530      2532
      2532      2533      2532      2534      2532      2535      2535      2536
      2535      2537      2535      2538      2538      2539      2538      2540
      2538      2541      2541      2542      2541      2543      2541      2544
      2544      2545      2544      2546      2544      2547      2495      2496
      2496      2498      2496      2497      2498      2499      2498      2500
      2498      2548      2548      2549      2548      2550      2548      2551
      2551      2552      2551      2553      2551      2554      2554      2555
      2554      2556      2554      2557      2557      2558      2557      2559
      2557      2560      2560      2561      2560      2562      2560      2563
      2563      2564      2563      2565      2563      2566      2566      2567
      2566      2568      2566      2569      2569      2570      2569      2571
      2569      2572      2572      2573      2572      2574      2572      2575
      2575      2576      2575      2577      2575      2578      2578      2579
      2578      2580      2578      2581      2581      2582      2581      2583
      2581      2584      2584      2585      2584      2586      2584      2587
      2587      2588      2587      2589      2587      2590      2590      2591
      2590      2592      2590      2593      2593      2594      2593      2595
      2593      2596      2672      2673      2672      2674      2672      2675
      2672      2669      2669      2670      2669      2671      2669      2666
      2666      2667      2666      2668      2666      2663      2663      2664
      2663      2665      2663      2660      2660      2661      2660      2662
      2660      2657      2657      2658      2657      2659      2657      2654
      2654      2655      2654      2656      2654      2651      2651      2652
      2651      2653      2651      2648      2648      2649      2648      2650
      2648      2645      2645      2646      2645      2647      2645      2642
      2642      2643      2642      2644      2642      2639      2639      2640
      2639      2641      2639      2636      2636      2637      2636      2638
      2636      2634      2634      2635      2632      2633      2632      2628
      2628      2629      2628      2630      2630      2631      2628      2626
      2626      2627      2626      2621      2621      2622      2621      2623
      2621      2619      2619      2616      2620      2616      2617      2616
      2618      2616      2620      2613      2613      2614      2613      2615
      2613      2610      2610      2611      2610      2612      2610      2597
      2597      2606      2597      2602      2597      2598      2606      2607
      2606      2608      2606      2609      2602      2603      2602      2604
      2602      2605      2598      2599      2598      2600      2598      2601
      2626      2624      2624      2625      2624      2676      2676      2678
      2678      2679      2678      2680      2678      2681      2681      2682
      2681      2683      2681      2684      2684      2685      2684      2686
      2684      2687      2687      2688      2687      2689      2687      2690
      2690      2691      2690      2692      2690      2693      2693      2694
      2693      2695      2693      2696      2696      2697      2696      2698
      2696      2699      2699      2700      2701      2702      2701      2703
      2703      2704      2703      2705      2703      2706      2706      2707
      2706      2708      2706      2709      2709      2710      2709      2711
      2709      2712      2712      2713      2712      2714      2712      2715
      2715      2716      2715      2717      2715      2718      2718      2719
      2718      2720      2718      2721      2721      2722      2721      2723
      2721      2724      2724      2725      2724      2726      2724      2727
      2632      2634      2699      2701      2676      2677      2728      2729
      2728      2730      2728      2731      2728      2732      2732      2733
      2732      2734      2732      2735      2735      2736      2735      2737
      2735      2741      2743      2742      2741      2738      2738      2742
      2738      2739      2738      2740      2743      2744      2743      2745
      2743      2746      2746      2747      2746      2754      2746      2748
      2754      2755      2754      2756      2754      2757      2748      2749
      2749      2751      2749      2750      2751      2752      2751      2753
      2751      2763      2763      2764      2763      2765      2763      2766
      2766      2767      2766      2768      2766      2769      2769      2770
      2769      2771      2771      2772      2771      2773      2773      2774
      2773      2775      2773      2776      2776      2777      2776      2778
      2778      2779      2778      2780      2780      2781      2780      2782
      2780      2783      2783      2784      2783      2785      2785      2786
      2785      2787      2787      2788      2787      2789      2787      2790
      2790      2791      2790      2792      2792      2793      2792      2794
      2794      2795      2794      2796      2794      2797      2797      2798
      2797      2799      2797      2800      2800      2801      2800      2802
      2800      2803      2803      2804      2803      2805      2803      2806
      2806      2807      2806      2808      2806      2809      2757      2758
      2758      2760      2758      2759      2760      2761      2760      2762
      2760      2810      2810      2811      2810      2812      2810      2813
      2813      2814      2813      2815      2813      2816      2816      2817
      2816      2818      2816      2819      2819      2820      2819      2821
      2819      2822      2822      2823      2822      2824      2822      2825
      2825      2826      2825      2827      2825      2828      2828      2829
      2828      2830      2828      2831      2831      2832      2831      2833
      2831      2834      2834      2835      2834      2836      2834      2837
      2837      2838      2837      2839      2837      2840      2840      2841
      2840      2842      2840      2843      2843      2844      2843      2845
      2843      2846      2846      2847      2846      2848      2846      2849
      2849      2850      2849      2851      2849      2852      2852      2853
      2852      2854      2852      2855      2855      2856      2855      2857
      2855      2858      2859      2860      2859      2861      2859      2862
      2859      2863      2863      2864      2863      2865      2863      2866
      2866      2867      2866      2868      2866      2872      2874      2873
      2872      2869      2869      2873      2869      2870      2869      2871
      2874      2875      2874      2876      2874      2877      2877      2878
      2877      2885      2877      2879      2885      2886      2885      2887
      2885      2888      2879      2880      2880      2882      2880      2881
      2882      2883      2882      2884      2882      2894      2894      2895
      2894      2896      2894      2897      2897      2898      2897      2899
      2897      2900      2900      2901      2900      2902      2900      2903
      2903      2904      2903      2905      2903      2906      2906      2907
      2906      2908      2906      2909      2909      2910      2909      2911
      2909      2912      2912      2913      2912      2914      2914      2915
      2914      2916      2916      2917      2916      2918      2916      2919
      2919      2920      2919      2921      2919      2922      2922      2923
      2922      2924      2922      2925      2925      2926      2925      2927
      2925      2928      2928      2929      2928      2930      2928      2931
      2931      2932      2931      2933      2931      2934      2934      2935
      2934      2936      2934      2937      2937      2938      2937      2939
      2937      2940      2888      2889      2889      2891      2889      2890
      2891      2892      2891      2893      2891      2941      2941      2942
      2941      2943      2941      2944      2944      2945      2944      2946
      2944      2947      2947      2948      2947      2949      2947      2950
      2950      2951      2950      2952      2950      2953      2953      2954
      2953      2955      2953      2956      2956      2957      2956      2958
      2956      2959      2959      2960      2959      2961      2959      2962
      2962      2963      2962      2964      2962      2965      2965      2966
      2965      2967      2965      2968      2968      2969      2968      2970
      2968      2971      2971      2972      2971      2973      2971      2974
      2974      2975      2974      2976      2974      2977      2977      2978
      2977      2979      2977      2980      2980      2981      2980      2982
      2980      2983      2983      2984      2983      2985      2983      2986
      2986      2987      2986      2988      2986      2989      3065      3066
      3065      3067      3065      3068      3065      3062      3062      3063
      3062      3064      3062      3059      3059      3060      3059      3061
      3059      3056      3056      3057      3056      3058      3056      3053
      3053      3054      3053      3055      3053      3050      3050      3051
      3050      3052      3050      3047      3047      3048      3047      3049
      3047      3044      3044      3045      3044      3046      3044      3041
      3041      3042      3041      3043      3041      3038      3038      3039
      3038      3040      3038      3035      3035      3036      3035      3037
      3035      3032      3032      3033      3032      3034      3032      3029
      3029      3030      3029      3031      3029      3027      3027      3028
      3025      3026      3025      3021      3021      3022      3021      3023
      3023      3024      3021      3019      3019      3020      3019      3014
      3014      3015      3014      3016      3014      3012      3012      3009
      3013      3009      3010      3009      3011      3009      3013      3006
      3006      3007      3006      3008      3006      3003      3003      3004
      3003      3005      3003      2990      2990      2999      2990      2995
      2990      2991      2999      3000      2999      3001      2999      3002
      2995      2996      2995      2997      2995      2998      2991      2992
      2991      2993      2991      2994      3019      3017      3017      3018
      3017      3069      3069      3071      3071      3072      3071      3073
      3071      3074      3074      3075      3074      3076      3074      3077
      3077      3078      3077      3079      3077      3080      3080      3081
      3080      3082      3080      3083      3083      3084      3083      3085
      3083      3086      3086      3087      3086      3088      3086      3089
      3089      3090      3089      3091      3089      3092      3092      3093
      3094      3095      3094      3096      3096      3097      3096      3098
      3096      3099      3099      3100      3099      3101      3099      3102
      3102      3103      3102      3104      3102      3105      3105      3106
      3105      3107      3105      3108      3108      3109      3108      3110
      3108      3111      3111      3112      3111      3113      3111      3114
      3114      3115      3114      3116      3114      3117      3117      3118
      3117      3119      3117      3120      3025      3027      3092      3094
      3069      3070      3196      3197      3196      3198      3196      3199
      3196      3193      3193      3194      3193      3195      3193      3190
      3190      3191      3190      3192      3190      3187      3187      3188
      3187      3189      3187      3184      3184      3185      3184      3186
      3184      3181      3181      3182      3181      3183      3181      3178
      3178      3179      3178      3180      3178      3175      3175      3176
      3175      3177      3175      3172      3172      3173      3172      3174
      3172      3169      3169      3170      3169      3171      3169      3166
      3166      3167      3166      3168      3166      3163      3163      3164
      3163      3165      3163      3160      3160      3161      3160      3162
      3160      3158      3158      3159      3156      3157      3156      3152
      3152      3153      3152      3154      3154      3155      3152      3150
      3150      3151      3150      3145      3145      3146      3145      3147
      3145      3143      3143      3140      3144      3140      3141      3140
      3142      3140      3144      3137      3137      3138      3137      3139
      3137      3134      3134      3135      3134      3136      3134      3121
      3121      3130      3121      3126      3121      3122      3130      3131
      3130      3132      3130      3133      3126      3127      3126      3128
      3126      3129      3122      3123      3122      3124      3122      3125
      3150      3148      3148      3149      3148      3200      3200      3202
      3202      3203      3202      3204      3202      3205      3205      3206
      3205      3207      3205      3208      3208      3209      3208      3210
      3208      3211      3211      3212      3211      3213      3211      3214
      3214      3215      3214      3216      3214      3217      3217      3218
      3217      3219      3217      3220      3220      3221      3220      3222
      3220      3223      3223      3224      3225      3226      3225      3227
      3227      3228      3227      3229      3227      3230      3230      3231
      3230      3232      3230      3233      3233      3234      3233      3235
      3233      3236      3236      3237      3236      3238      3236      3239
      3239      3240      3239      3241      3239      3242      3242      3243
      3242      3244      3242      3245      3245      3246      3245      3247
      3245      3248      3248      3249      3248      3250      3248      3251
      3156      3158      3223      3225      3200      3201      3327      3328
      3327      3329      3327      3330      3327      3324      3324      3325
      3324      3326      3324      3321      3321      3322      3321      3323
      3321      3318      3318      3319      3318      3320      3318      3315
      3315      3316      3315      3317      3315      3312      3312      3313
      3312      3314      3312      3309      3309      3310      3309      3311
      3309      3306      3306      3307      3306      3308      3306      3303
      3303      3304      3303      3305      3303      3300      3300      3301
      3300      3302      3300      3297      3297      3298      3297      3299
      3297      3294      3294      3295      3294      3296      3294      3291
      3291      3292      3291      3293      3291      3289      3289      3290
      3287      3288      3287      3283      3283      3284      3283      3285
      3285      3286      3283      3281      3281      3282      3281      3276
      3276      3277      3276      3278      3276      3274      3274      3271
      3275      3271      3272      3271      3273      3271      3275      3268
      3268      3269      3268      3270      3268      3265      3265      3266
      3265      3267      3265      3252      3252      3261      3252      3257
      3252      3253      3261      3262      3261      3263      3261      3264
      3257      3258      3257      3259      3257      3260      3253      3254
      3253      3255      3253      3256      3281      3279      3279      3280
      3279      3331      3331      3333      3333      3334      3333      3335
      3333      3336      3336      3337      3336      3338      3336      3339
      3339      3340      3339      3341      3339      3342      3342      3343
      3342      3344      3342      3345      3345      3346      3345      3347
      3345      3348      3348      3349      3348      3350      3348      3351
      3351      3352      3351      3353      3351      3354      3354      3355
      3356      3357      3356      3358      3358      3359      3358      3360
      3358      3361      3361      3362      3361      3363      3361      3364
      3364      3365      3364      3366      3364      3367      3367      3368
      3367      3369      3367      3370      3370      3371      3370      3372
      3370      3373      3373      3374      3373      3375      3373      3376
      3376      3377      3376      3378      3376      3379      3379      3380
      3379      3381      3379      3382      3287      3289      3354      3356
      3331      3332      3383      3384      3383      3385      3383      3386
      3383      3387      3387      3388      3387      3389      3387      3390
      3390      3391      3390      3392      3390      3396      3398      3397
      3396      3393      3393      3397      3393      3394      3393      3395
      3398      3399      3398      3400      3398      3401      3401      3402
      3401      3409      3401      3403      3409      3410      3409      3411
      3409      3412      3403      3404      3404      3406      3404      3405
      3406      3407      3406      3408      3406      3418      3418      3419
      3418      3420      3418      3421      3421      3422      3421      3423
      3421      3424      3424      3425      3424      3426      3424      3427
      3427      3428      3427      3429      3427      3430      3430      3431
      3430      3432      3430      3433      3433      3434      3433      3435
      3433      3436      3436      3437      3436      3438      3438      3439
      3438      3440      3440      3441      3440      3442      3440      3443
      3443      3444      3443      3445      3443      3446      3446      3447
      3446      3448      3446      3449      3449      3450      3449      3451
      3449      3452      3452      3453      3452      3454      3452      3455
      3455      3456      3455      3457      3455      3458      3458      3459
      3458      3460      3458      3461      3461      3462      3461      3463
      3461      3464      3412      3413      3413      3415      3413      3414
      3415      3416      3415      3417      3415      3465      3465      3466
      3465      3467      3465      3468      3468      3469      3468      3470
      3468      3471      3471      3472      3471      3473      3471      3474
      3474      3475      3474      3476      3474      3477      3477      3478
      3477      3479      3477      3480      3480      3481      3480      3482
      3480      3483      3483      3484      3483      3485      3483      3486
      3486      3487      3486      3488      3486      3489      3489      3490
      3489      3491      3489      3492      3492      3493      3492      3494
      3492      3495      3495      3496      3495      3497      3495      3498
      3498      3499      3498      3500      3498      3501      3501      3502
      3501      3503      3501      3504      3504      3505      3504      3506
      3504      3507      3507      3508      3507      3509      3507      3510
      3510      3511      3510      3512      3510      3513      3589      3590
      3589      3591      3589      3592      3589      3586      3586      3587
      3586      3588      3586      3583      3583      3584      3583      3585
      3583      3580      3580      3581      3580      3582      3580      3577
      3577      3578      3577      3579      3577      3574      3574      3575
      3574      3576      3574      3571      3571      3572      3571      3573
      3571      3568      3568      3569      3568      3570      3568      3565
      3565      3566      3565      3567      3565      3562      3562      3563
      3562      3564      3562      3559      3559      3560      3559      3561
      3559      3556      3556      3557      3556      3558      3556      3553
      3553      3554      3553      3555      3553      3551      3551      3552
      3549      3550      3549      3545      3545      3546      3545      3547
      3547      3548      3545      3543      3543      3544      3543      3538
      3538      3539      3538      3540      3538      3536      3536      3533
      3537      3533      3534      3533      3535      3533      3537      3530
      3530      3531      3530      3532      3530      3527      3527      3528
      3527      3529      3527      3514      3514      3523      3514      3519
      3514      3515      3523      3524      3523      3525      3523      3526
      3519      3520      3519      3521      3519      3522      3515      3516
      3515      3517      3515      3518      3543      3541      3541      3542
      3541      3593      3593      3595      3595      3596      3595      3597
      3595      3598      3598      3599      3598      3600      3598      3601
      3601      3602      3601      3603      3601      3604      3604      3605
      3604      3606      3604      3607      3607      3608      3607      3609
      3607      3610      3610      3611      3610      3612      3610      3613
      3613      3614      3613      3615      3613      3616      3616      3617
      3618      3619      3618      3620      3620      3621      3620      3622
      3620      3623      3623      3624      3623      3625      3623      3626
      3626      3627      3626      3628      3626      3629      3629      3630
      3629      3631      3629      3632      3632      3633      3632      3634
      3632      3635      3635      3636      3635      3637      3635      3638
      3638      3639      3638      3640      3638      3641      3641      3642
      3641      3643      3641      3644      3549      3551      3616      3618
      3593      3594      3645      3647      3645      3646      3647      3648
      3645      3691      3691      3692      3691      3693      3691      3688
      3688      3689      3688      3690      3645      3649      3649      3650
      3649      3651      3649      3652      3652      3683      3683      3688
      3683      3684      3684      3685      3684      3686      3684      3687
      3652      3653      3653      3654      3653      3655      3655      3656
      3655      3657      3655      3658      3658      3659      3658      3681
      3681      3682      3681      3683      3658      3660      3660      3661
      3660      3670      3670      3675      3675      3676      3675      3677
      3675      3678      3678      3679      3678      3680      3678      3681
      3670      3671      3671      3672      3671      3673      3671      3674
      3660      3662      3662      3663      3662      3664      3662      3665
      3665      3666      3665      3667      3665      3668      3668      3669
      3668      3670      3668      3694      3694      3695      3694      3696
      3696      3697      3696      3698      3696      3699      3694      3700
      3700      3701      3700      3702      3700      3703      3703      3704
      3703      3705      3703      3706      3706      3707      3706      3708
      3706      3709      3709      3710      3709      3711      3711      3712
      3711      3713      3711      3714      3709      3715      3715      3716
      3715      3717      3715      3718      3719      3720      3719      3721
      3719      3722      3719      3723      3723      3724      3723      3725
      3723      3726      3726      3727      3726      3728      3726      3732
      3734      3733      3732      3729      3729      3733      3729      3730
      3729      3731      3734      3735      3734      3736      3734      3737
      3737      3738      3737      3745      3737      3739      3745      3746
      3745      3747      3745      3748      3739      3740      3740      3742
      3740      3741      3742      3743      3742      3744      3742      3754
      3754      3755      3754      3756      3754      3757      3757      3758
      3757      3759      3757      3760      3760      3761      3760      3762
      3762      3763      3762      3764      3764      3765      3764      3766
      3764      3767      3767      3768      3767      3769      3769      3770
      3769      3771      3771      3772      3771      3773      3771      3774
      3774      3775      3774      3776      3776      3777      3776      3778
      3778      3779      3778      3780      3778      3781      3781      3782
      3781      3783      3783      3784      3783      3785      3785      3786
      3785      3787      3785      3788      3788      3789      3788      3790
      3788      3791      3791      3792      3791      3793      3791      3794
      3794      3795      3794      3796      3794      3797      3797      3798
      3797      3799      3797      3800      3748      3749      3749      3751
      3749      3750      3751      3752      3751      3753      3751      3801
      3801      3802      3801      3803      3801      3804      3804      3805
      3804      3806      3804      3807      3807      3808      3807      3809
      3807      3810      3810      3811      3810      3812      3810      3813
      3813      3814      3813      3815      3813      3816      3816      3817
      3816      3818      3816      3819      3819      3820      3819      3821
      3819      3822      3822      3823      3822      3824      3822      3825
      3825      3826      3825      3827      3825      3828      3828      3829
      3828      3830      3828      3831      3831      3832      3831      3833
      3831      3834      3834      3835      3834      3836      3834      3837
      3837      3838      3837      3839      3837      3840      3840      3841
      3840      3842      3840      3843      3843      3844      3843      3845
      3843      3846      3846      3847      3846      3848      3846      3849
      3850      3851      3850      3852      3850      3853      3850      3854
      3858      3856      3856      3854      3856      3857      3854      3855
      3854      3859      3867      3866      3859      3860      3859      3861
      3859      3865      3865      3862      3862      3866      3862      3863
      3862      3864      3867      3868      3867      3869      3867      3870
      3870      3871      3870      3878      3870      3872      3878      3879
      3878      3880      3878      3881      3872      3873      3873      3875
      3873      3874      3875      3876      3875      3877      3875      3887
      3887      3888      3887      3889      3887      3890      3890      3891
      3890      3892      3890      3893      3893      3894      3893      3895
      3895      3896      3895      3897      3897      3898      3897      3899
      3897      3900      3900      3901      3900      3902      3902      3903
      3902      3904      3904      3905      3904      3906      3904      3907
      3907      3908      3907      3909      3909      3910      3909      3911
      3911      3912      3911      3913      3911      3914      3914      3915
      3914      3916      3916      3917      3916      3918      3918      3919
      3918      3920      3918      3921      3921      3922      3921      3923
      3921      3924      3924      3925      3924      3926      3924      3927
      3927      3928      3927      3929      3927      3930      3930      3931
      3930      3932      3930      3933      3881      3882      3882      3884
      3882      3883      3884      3885      3884      3886      3884      3934
      3934      3935      3934      3936      3934      3937      3937      3938
      3937      3939      3937      3940      3940      3941      3940      3942
      3940      3943      3943      3944      3943      3945      3943      3946
      3946      3947      3946      3948      3946      3949      3949      3950
      3949      3951      3949      3952      3952      3953      3952      3954
      3952      3955      3955      3956      3955      3957      3955      3958
      3958      3959      3958      3960      3958      3961      3961      3962
      3961      3963      3961      3964      3964      3965      3964      3966
      3964      3967      3967      3968      3967      3969      3967      3970
      3970      3971      3970      3972      3970      3973      3973      3974
      3973      3975      3973      3976      3976      3977      3976      3978
      3976      3979      3979      3980      3979      3981      3979      3982
      3983      3987      3983      3991      3983      3995      3987      3988
      3987      3989      3987      3990      3991      3992      3991      3993
      3991      3994      3995      3996      3995      3997      3995      3998
      3983      3984      3984      3985      3984      3986      3984      3999
      3999      4000      3999      4001      3999      4005      4006      4007
      4005      4002      4002      4006      4002      4003      4002      4004
      4007      4008      4007      4009      4007      4010      4010      4011
      4010      4018      4010      4012      4018      4019      4018      4020
      4018      4021      4012      4013      4013      4015      4013      4014
      4015      4016      4015      4017      4015      4027      4027      4028
      4027      4029      4027      4030      4030      4031      4030      4032
      4030      4033      4033      4034      4033      4035      4035      4036
      4035      4037      4037      4038      4037      4039      4037      4040
      4040      4041      4040      4042      4042      4043      4042      4044
      4044      4045      4044      4046      4044      4047      4047      4048
      4047      4049      4049      4050      4049      4051      4051      4052
      4051      4053      4051      4054      4054      4055      4054      4056
      4056      4057      4056      4058      4058      4059      4058      4060
      4058      4061      4061      4062      4061      4063      4061      4064
      4064      4065      4064      4066      4064      4067      4067      4068
      4067      4069      4067      4070      4070      4071      4070      4072
      4070      4073      4021      4022      4022      4024      4022      4023
      4024      4025      4024      4026      4024      4074      4074      4075
      4074      4076      4074      4077      4077      4078      4077      4079
      4077      4080      4080      4081      4080      4082      4080      4083
      4083      4084      4083      4085      4083      4086      4086      4087
      4086      4088      4086      4089      4089      4090      4089      4091
      4089      4092      4092      4093      4092      4094      4092      4095
      4095      4096      4095      4097      4095      4098      4098      4099
      4098      4100      4098      4101      4101      4102      4101      4103
      4101      4104      4104      4105      4104      4106      4104      4107
      4107      4108      4107      4109      4107      4110      4110      4111
      4110      4112      4110      4113      4113      4114      4113      4115
      4113      4116      4116      4117      4116      4118      4116      4119
      4119      4120      4119      4121      4119      4122      4123      4127
      4123      4131      4123      4135      4127      4128      4127      4129
      4127      4130      4131      4132      4131      4133      4131      4134
      4135      4136      4135      4137      4135      4138      4123      4124
      4124      4125      4124      4126      4124      4139      4139      4140
      4139      4141      4139      4145      4146      4147      4145      4142
      4142      4146      4142      4143      4142      4144      4147      4148
      4147      4149      4147      4150      4150      4151      4150      4158
      4150      4152      4158      4159      4158      4160      4158      4161
      4152      4153      4153      4155      4153      4154      4155      4156
      4155      4157      4155      4167      4167      4168      4167      4169
      4167      4170      4170      4171      4170      4172      4170      4173
      4173      4174      4173      4175      4173      4176      4176      4177
      4176      4178      4176      4179      4179      4180      4179      4181
      4179      4182      4182      4183      4182      4184      4182      4185
      4185      4186      4185      4187      4187      4188      4187      4189
      4189      4190      4189      4191      4189      4192      4192      4193
      4192      4194      4192      4195      4195      4196      4195      4197
      4195      4198      4198      4199      4198      4200      4198      4201
      4201      4202      4201      4203      4201      4204      4204      4205
      4204      4206      4204      4207      4207      4208      4207      4209
      4207      4210      4210      4211      4210      4212      4210      4213
      4161      4162      4162      4164      4162      4163      4164      4165
      4164      4166      4164      4214      4214      4215      4214      4216
      4214      4217      4217      4218      4217      4219      4217      4220
      4220      4221      4220      4222      4220      4223      4223      4224
      4223      4225      4223      4226      4226      4227      4226      4228
      4226      4229      4229      4230      4229      4231      4229      4232
      4232      4233      4232      4234      4232      4235      4235      4236
      4235      4237      4235      4238      4238      4239      4238      4240
      4238      4241      4241      4242      4241      4243      4241      4244
      4244      4245      4244      4246      4244      4247      4247      4248
      4247      4249      4247      4250      4250      4251      4250      4252
      4250      4253      4253      4254      4253      4255      4253      4256
      4257      4258      4257      4259      4257      4260      4257      4261
      4261      4262      4261      4263      4261      4264      4264      4265
      4264      4266      4264      4270      4272      4271      4270      4267
      4267      4271      4267      4268      4267      4269      4272      4273
      4272      4274      4272      4275      4275      4276      4275      4283
      4275      4277      4283      4284      4283      4285      4283      4286
      4277      4278      4278      4280      4278      4279      4280      4281
      4280      4282      4280      4292      4292      4293      4292      4294
      4292      4295      4295      4296      4295      4297      4295      4298
      4298      4299      4298      4300      4300      4301      4300      4302
      4302      4303      4302      4304      4302      4305      4305      4306
      4305      4307      4307      4308      4307      4309      4309      4310
      4309      4311      4309      4312      4312      4313      4312      4314
      4314      4315      4314      4316      4316      4317      4316      4318
      4316      4319      4319      4320      4319      4321      4321      4322
      4321      4323      4323      4324      4323      4325      4323      4326
      4326      4327      4326      4328      4326      4329      4329      4330
      4329      4331      4329      4332      4332      4333      4332      4334
      4332      4335      4335      4336      4335      4337      4335      4338
      4286      4287      4287      4289      4287      4288      4289      4290
      4289      4291      4289      4339      4339      4340      4339      4341
      4339      4342      4342      4343      4342      4344      4342      4345
      4345      4346      4345      4347      4345      4348      4348      4349
      4348      4350      4348      4351      4351      4352      4351      4353
      4351      4354      4354      4355      4354      4356      4354      4357
      4357      4358      4357      4359      4357      4360      4360      4361
      4360      4362      4360      4363      4363      4364      4363      4365
      4363      4366      4366      4367      4366      4368      4366      4369
      4369      4370      4369      4371      4369      4372      4372      4373
      4372      4374      4372      4375      4375      4376      4375      4377
      4375      4378      4378      4379      4378      4380      4378      4381
      4381      4382      4381      4383      4381      4384      4384      4385
      4384      4386      4384      4387      4388      4389      4388      4390
      4388      4391      4388      4392      4392      4393      4392      4394
      4392      4395      4395      4396      4395      4397      4395      4401
      4403      4402      4401      4398      4398      4402      4398      4399
      4398      4400      4403      4404      4403      4405      4403      4406
      4406      4407      4406      4414      4406      4408      4414      4415
      4414      4416      4414      4417      4408      4409      4409      4411
      4409      4410      4411      4412      4411      4413      4411      4423
      4423      4424      4423      4425      4423      4426      4426      4427
      4426      4428      4426      4429      4429      4430      4429      4431
      4429      4432      4432      4433      4432      4434      4432      4435
      4435      4436      4435      4437      4435      4438      4438      4439
      4438      4440      4438      4441      4441      4442      4441      4443
      4443      4444      4443      4445      4445      4446      4445      4447
      4445      4448      4448      4449      4448      4450      4448      4451
      4451      4452      4451      4453      4451      4454      4454      4455
      4454      4456      4454      4457      4457      4458      4457      4459
      4457      4460      4460      4461      4460      4462      4460      4463
      4463      4464      4463      4465      4463      4466      4466      4467
      4466      4468      4466      4469      4417      4418      4418      4420
      4418      4419      4420      4421      4420      4422      4420      4470
      4470      4471      4470      4472      4470      4473      4473      4474
      4473      4475      4473      4476      4476      4477      4476      4478
      4476      4479      4479      4480      4479      4481      4479      4482
      4482      4483      4482      4484      4482      4485      4485      4486
      4485      4487      4485      4488      4488      4489      4488      4490
      4488      4491      4491      4492      4491      4493      4491      4494
      4494      4495      4494      4496      4494      4497      4497      4498
      4497      4499      4497      4500      4500      4501      4500      4502
      4500      4503      4503      4504      4503      4505      4503      4506
      4506      4507      4506      4508      4506      4509      4509      4510
      4509      4511      4509      4512      4512      4513      4512      4514
      4512      4515      4515      4516      4515      4517      4515      4518
      4519      4520      4519      4521      4519      4522      4519      4523
      4527      4525      4525      4523      4525      4526      4523      4524
      4523      4528      4536      4535      4528      4529      4528      4530
      4528      4534      4534      4531      4531      4535      4531      4532
      4531      4533      4536      4537      4536      4538      4536      4539
      4539      4540      4539      4547      4539      4541      4547      4548
      4547      4549      4547      4550      4541      4542      4542      4544
      4542      4543      4544      4545      4544      4546      4544      4556
      4556      4557      4556      4558      4556      4559      4559      4560
      4559      4561      4559      4562      4562      4563      4562      4564
      4564      4565      4564      4566      4566      4567      4566      4568
      4566      4569      4569      4570      4569      4571      4571      4572
      4571      4573      4573      4574      4573      4575      4573      4576
      4576      4577      4576      4578      4578      4579      4578      4580
      4580      4581      4580      4582      4580      4583      4583      4584
      4583      4585      4585      4586      4585      4587      4587      4588
      4587      4589      4587      4590      4590      4591      4590      4592
      4590      4593      4593      4594      4593      4595      4593      4596
      4596      4597      4596      4598      4596      4599      4599      4600
      4599      4601      4599      4602      4550      4551      4551      4553
      4551      4552      4553      4554      4553      4555      4553      4603
      4603      4604      4603      4605      4603      4606      4606      4607
      4606      4608      4606      4609      4609      4610      4609      4611
      4609      4612      4612      4613      4612      4614      4612      4615
      4615      4616      4615      4617      4615      4618      4618      4619
      4618      4620      4618      4621      4621      4622      4621      4623
      4621      4624      4624      4625      4624      4626      4624      4627
      4627      4628      4627      4629      4627      4630      4630      4631
      4630      4632      4630      4633      4633      4634      4633      4635
      4633      4636      4636      4637      4636      4638      4636      4639
      4639      4640      4639      4641      4639      4642      4642      4643
      4642      4644      4642      4645      4645      4646      4645      4647
      4645      4648      4648      4649      4648      4650      4648      4651
      4672      4673      4672      4668      4672      4652      4672      4677
      4652      4653      4652      4654      4654      4655      4652      4656
      4656      4657      4656      4658      4658      4659      4656      4660
      4660      4661      4660      4662      4662      4663      4660      4664
      4664      4665      4664      4668      4668      4669      4668      4670
      4670      4671      4664      4666      4666      4667      4677      4674
      4674      4678      4674      4675      4674      4676      4678      4679
      4679      4680      4679      4681      4679      4682      4682      4683
      4682      4690      4682      4684      4690      4691      4690      4692
      4690      4693      4684      4685      4685      4687      4685      4686
      4687      4688      4687      4689      4687      4699      4699      4700
      4699      4701      4699      4702      4702      4703      4702      4704
      4702      4705      4705      4706      4705      4707      4707      4708
      4707      4709      4709      4710      4709      4711      4709      4712
      4712      4713      4712      4714      4714      4715      4714      4716
      4716      4717      4716      4718      4716      4719      4719      4720
      4719      4721      4721      4722      4721      4723      4723      4724
      4723      4725      4723      4726      4726      4727      4726      4728
      4728      4729      4728      4730      4730      4731      4730      4732
      4730      4733      4733      4734      4733      4735      4733      4736
      4736      4737      4736      4738      4736      4739      4739      4740
      4739      4741      4739      4742      4742      4743      4742      4744
      4742      4745      4693      4694      4694      4696      4694      4695
      4696      4697      4696      4698      4696      4746      4746      4747
      4746      4748      4746      4749      4749      4750      4749      4751
      4749      4752      4752      4753      4752      4754      4752      4755
      4755      4756      4755      4757      4755      4758      4758      4759
      4758      4760      4758      4761      4761      4762      4761      4763
      4761      4764      4764      4765      4764      4766      4764      4767
      4767      4768      4767      4769      4767      4770      4770      4771
      4770      4772      4770      4773      4773      4774      4773      4775
      4773      4776      4776      4777      4776      4778      4776      4779
      4779      4780      4779      4781      4779      4782      4782      4783
      4782      4784      4782      4785      4785      4786      4785      4787
      4785      4788      4788      4789      4788      4790      4788      4791
      4791      4792      4791      4793      4791      4794      4795      4797
      4795      4796      4797      4798      4795      4841      4841      4842
      4841      4843      4841      4838      4838      4839      4838      4840
      4795      4799      4799      4800      4799      4801      4799      4802
      4802      4833      4833      4838      4833      4834      4834      4835
      4834      4836      4834      4837      4802      4803      4803      4804
      4803      4805      4805      4806      4805      4807      4805      4808
      4808      4809      4808      4831      4831      4832      4831      4833
      4808      4810      4810      4811      4810      4820      4820      4825
      4825      4826      4825      4827      4825      4828      4828      4829
      4828      4830      4828      4831      4820      4821      4821      4822
      4821      4823      4821      4824      4810      4812      4812      4813
      4812      4814      4812      4815      4815      4816      4815      4817
      4815      4818      4818      4819      4818      4820      4818      4844
      4844      4845      4844      4846      4846      4847      4846      4848
      4846      4849      4844      4850      4850      4851      4850      4852
      4850      4853      4853      4854      4853      4855      4853      4856
      4856      4857      4856      4858      4856      4859      4859      4860
      4859      4861      4861      4862      4861      4863      4861      4864
      4859      4865      4865      4866      4865      4867      4865      4868
      4869      4871      4869      4870      4871      4872      4869      4915
      4915      4916      4915      4917      4915      4912      4912      4913
      4912      4914      4869      4873      4873      4874      4873      4875
      4873      4876      4876      4907      4907      4912      4907      4908
      4908      4909      4908      4910      4908      4911      4876      4877
      4877      4878      4877      4879      4879      4880      4879      4881
      4879      4882      4882      4883      4882      4905      4905      4906
      4905      4907      4882      4884      4884      4885      4884      4894
      4894      4899      4899      4900      4899      4901      4899      4902
      4902      4903      4902      4904      4902      4905      4894      4895
      4895      4896      4895      4897      4895      4898      4884      4886
      4886      4887      4886      4888      4886      4889      4889      4890
      4889      4891      4889      4892      4892      4893      4892      4894
      4892      4918      4918      4919      4918      4920      4920      4921
      4920      4922      4920      4923      4918      4924      4924      4925
      4924      4926      4924      4927      4927      4928      4927      4929
      4927      4930      4930      4931      4930      4932      4930      4933
      4933      4934      4933      4935      4935      4936      4935      4937
      4935      4938      4933      4939      4939      4940      4939      4941
      4939      4942      4943      4947      4943      4951      4943      4955
      4947      4948      4947      4949      4947      4950      4951      4952
      4951      4953      4951      4954      4955      4956      4955      4957
      4955      4958      4943      4944      4944      4945      4944      4946
      4944      4959      4959      4960      4959      4961      4959      4965
      4966      4967      4965      4962      4962      4966      4962      4963
      4962      4964      4967      4968      4967      4969      4967      4970
      4970      4971      4970      4978      4970      4972      4978      4979
      4978      4980      4978      4981      4972      4973      4973      4975
      4973      4974      4975      4976      4975      4977      4975      4987
      4987      4988      4987      4989      4987      4990      4990      4991
      4990      4992      4990      4993      4993      4994      4993      4995
      4995      4996      4995      4997      4997      4998      4997      4999
      4997      5000      5000      5001      5000      5002      5002      5003
      5002      5004      5004      5005      5004      5006      5004      5007
      5007      5008      5007      5009      5009      5010      5009      5011
      5011      5012      5011      5013      5011      5014      5014      5015
      5014      5016      5016      5017      5016      5018      5018      5019
      5018      5020      5018      5021      5021      5022      5021      5023
      5021      5024      5024      5025      5024      5026      5024      5027
      5027      5028      5027      5029      5027      5030      5030      5031
      5030      5032      5030      5033      4981      4982      4982      4984
      4982      4983      4984      4985      4984      4986      4984      5034
      5034      5035      5034      5036      5034      5037      5037      5038
      5037      5039      5037      5040      5040      5041      5040      5042
      5040      5043      5043      5044      5043      5045      5043      5046
      5046      5047      5046      5048      5046      5049      5049      5050
      5049      5051      5049      5052      5052      5053      5052      5054
      5052      5055      5055      5056      5055      5057      5055      5058
      5058      5059      5058      5060      5058      5061      5061      5062
      5061      5063      5061      5064      5064      5065      5064      5066
      5064      5067      5067      5068      5067      5069      5067      5070
      5070      5071      5070      5072      5070      5073      5073      5074
      5073      5075      5073      5076      5076      5077      5076      5078
      5076      5079      5079      5080      5079      5081      5079      5082
      5083      5085      5083      5084      5085      5086      5083      5129
      5129      5130      5129      5131      5129      5126      5126      5127
      5126      5128      5083      5087      5087      5088      5087      5089
      5087      5090      5090      5121      5121      5126      5121      5122
      5122      5123      5122      5124      5122      5125      5090      5091
      5091      5092      5091      5093      5093      5094      5093      5095
      5093      5096      5096      5097      5096      5119      5119      5120
      5119      5121      5096      5098      5098      5099      5098      5108
      5108      5113      5113      5114      5113      5115      5113      5116
      5116      5117      5116      5118      5116      5119      5108      5109
      5109      5110      5109      5111      5109      5112      5098      5100
      5100      5101      5100      5102      5100      5103      5103      5104
      5103      5105      5103      5106      5106      5107      5106      5108
      5106      5132      5132      5133      5132      5134      5134      5135
      5134      5136      5134      5137      5132      5138      5138      5139
      5138      5140      5138      5141      5141      5142      5141      5143
      5141      5144      5144      5145      5144      5146      5144      5147
      5147      5148      5147      5149      5149      5150      5149      5151
      5149      5152      5147      5153      5153      5154      5153      5155
      5153      5156      5157      5158      5157      5162      5157      5166
      5158      5159      5158      5160      5158      5161      5162      5163
      5162      5164      5162      5165      5166      5167      5166      5168
      5166      5169      5157      5170      5170      5171      5170      5172
      5170      5173      5173      5174      5173      5175      5173      5179
      5180      5181      5179      5176      5176      5180      5176      5177
      5176      5178      5181      5182      5181      5183      5181      5184
      5184      5185      5184      5192      5184      5186      5192      5193
      5192      5194      5192      5195      5186      5187      5187      5189
      5187      5188      5189      5190      5189      5191      5189      5201
      5201      5202      5201      5203      5201      5204      5204      5205
      5204      5206      5204      5207      5207      5208      5207      5209
      5207      5210      5210      5211      5210      5212      5210      5213
      5213      5214      5213      5215      5213      5216      5216      5217
      5216      5218      5216      5219      5219      5220      5219      5221
      5221      5222      5221      5223      5223      5224      5223      5225
      5223      5226      5226      5227      5226      5228      5228      5229
      5228      5230      5230      5231      5230      5232      5230      5233
      5233      5234      5233      5235      5233      5236      5236      5237
      5236      5238      5236      5239      5239      5240      5239      5241
      5239      5242      5242      5243      5242      5244      5242      5245
      5195      5196      5196      5198      5196      5197      5198      5199
      5198      5200      5198      5246      5246      5247      5246      5248
      5246      5249      5249      5250      5249      5251      5249      5252
      5252      5253      5252      5254      5252      5255      5255      5256
      5255      5257      5255      5258      5258      5259      5258      5260
      5258      5261      5261      5262      5261      5263      5261      5264
      5264      5265      5264      5266      5264      5267      5267      5268
      5267      5269      5267      5270      5270      5271      5270      5272
      5270      5273      5273      5274      5273      5275      5273      5276
      5276      5277      5276      5278      5276      5279      5279      5280
      5279      5281      5279      5282      5282      5283      5282      5284
      5282      5285      5285      5286      5285      5287      5285      5288
      5288      5289      5288      5290      5288      5291      5291      5292
      5291      5293      5291      5294      5295      5297      5295      5296
      5297      5298      5295      5341      5341      5342      5341      5343
      5341      5338      5338      5339      5338      5340      5295      5299
      5299      5300      5299      5301      5299      5302      5302      5333
      5333      5338      5333      5334      5334      5335      5334      5336
      5334      5337      5302      5303      5303      5304      5303      5305
      5305      5306      5305      5307      5305      5308      5308      5309
      5308      5331      5331      5332      5331      5333      5308      5310
      5310      5311      5310      5320      5320      5325      5325      5326
      5325      5327      5325      5328      5328      5329      5328      5330
      5328      5331      5320      5321      5321      5322      5321      5323
      5321      5324      5310      5312      5312      5313      5312      5314
      5312      5315      5315      5316      5315      5317      5315      5318
      5318      5319      5318      5320      5318      5344      5344      5345
      5344      5346      5346      5347      5346      5348      5346      5349
      5344      5350      5350      5351      5350      5352      5350      5353
      5353      5354      5353      5355      5353      5356      5356      5357
      5356      5358      5356      5359      5359      5360      5359      5361
      5361      5362      5361      5363      5361      5364      5359      5365
      5365      5366      5365      5367      5365      5368      5369      5370
      5369      5374      5369      5378      5370      5371      5370      5372
      5370      5373      5374      5375      5374      5376      5374      5377
      5378      5379      5378      5380      5378      5381      5369      5382
      5382      5383      5382      5384      5382      5385      5385      5386
      5385      5387      5385      5391      5392      5393      5391      5388
      5388      5392      5388      5389      5388      5390      5393      5394
      5393      5395      5393      5396      5396      5397      5396      5404
      5396      5398      5404      5405      5404      5406      5404      5407
      5398      5399      5399      5401      5399      5400      5401      5402
      5401      5403      5401      5413      5413      5414      5413      5415
      5413      5416      5416      5417      5416      5418      5416      5419
      5419      5420      5419      5421      5419      5422      5422      5423
      5422      5424      5422      5425      5425      5426      5425      5427
      5425      5428      5428      5429      5428      5430      5428      5431
      5431      5432      5431      5433      5433      5434      5433      5435
      5435      5436      5435      5437      5435      5438      5438      5439
      5438      5440      5440      5441      5440      5442      5442      5443
      5442      5444      5442      5445      5445      5446      5445      5447
      5445      5448      5448      5449      5448      5450      5448      5451
      5451      5452      5451      5453      5451      5454      5454      5455
      5454      5456      5454      5457      5407      5408      5408      5410
      5408      5409      5410      5411      5410      5412      5410      5458
      5458      5459      5458      5460      5458      5461      5461      5462
      5461      5463      5461      5464      5464      5465      5464      5466
      5464      5467      5467      5468      5467      5469      5467      5470
      5470      5471      5470      5472      5470      5473      5473      5474
      5473      5475      5473      5476      5476      5477      5476      5478
      5476      5479      5479      5480      5479      5481      5479      5482
      5482      5483      5482      5484      5482      5485      5485      5486
      5485      5487      5485      5488      5488      5489      5488      5490
      5488      5491      5491      5492      5491      5493      5491      5494
      5494      5495      5494      5496      5494      5497      5497      5498
      5497      5499      5497      5500      5500      5501      5500      5502
      5500      5503      5503      5504      5503      5505      5503      5506
      5507      5509      5507      5508      5509      5510      5507      5553
      5553      5554      5553      5555      5553      5550      5550      5551
      5550      5552      5507      5511      5511      5512      5511      5513
      5511      5514      5514      5545      5545      5550      5545      5546
      5546      5547      5546      5548      5546      5549      5514      5515
      5515      5516      5515      5517      5517      5518      5517      5519
      5517      5520      5520      5521      5520      5543      5543      5544
      5543      5545      5520      5522      5522      5523      5522      5532
      5532      5537      5537      5538      5537      5539      5537      5540
      5540      5541      5540      5542      5540      5543      5532      5533
      5533      5534      5533      5535      5533      5536      5522      5524
      5524      5525      5524      5526      5524      5527      5527      5528
      5527      5529      5527      5530      5530      5531      5530      5532
      5530      5556      5556      5557      5556      5558      5558      5559
      5558      5560      5558      5561      5556      5562      5562      5563
      5562      5564      5562      5565      5565      5566      5565      5567
      5565      5568      5568      5569      5568      5570      5568      5571
      5571      5572      5571      5573      5573      5574      5573      5575
      5573      5576      5571      5577      5577      5578      5577      5579
      5577      5580      5656      5657      5656      5658      5656      5659
      5656      5653      5653      5654      5653      5655      5653      5650
      5650      5651      5650      5652      5650      5647      5647      5648
      5647      5649      5647      5644      5644      5645      5644      5646
      5644      5641      5641      5642      5641      5643      5641      5638
      5638      5639      5638      5640      5638      5635      5635      5636
      5635      5637      5635      5632      5632      5633      5632      5634
      5632      5629      5629      5630      5629      5631      5629      5626
      5626      5627      5626      5628      5626      5623      5623      5624
      5623      5625      5623      5620      5620      5621      5620      5622
      5620      5618      5618      5619      5616      5617      5616      5612
      5612      5613      5612      5614      5614      5615      5612      5610
      5610      5611      5610      5605      5605      5606      5605      5607
      5605      5603      5603      5600      5604      5600      5601      5600
      5602      5600      5604      5597      5597      5598      5597      5599
      5597      5594      5594      5595      5594      5596      5594      5581
      5581      5590      5581      5586      5581      5582      5590      5591
      5590      5592      5590      5593      5586      5587      5586      5588
      5586      5589      5582      5583      5582      5584      5582      5585
      5610      5608      5608      5609      5608      5660      5660      5662
      5662      5663      5662      5664      5662      5665      5665      5666
      5665      5667      5665      5668      5668      5669      5668      5670
      5668      5671      5671      5672      5671      5673      5671      5674
      5674      5675      5674      5676      5674      5677      5677      5678
      5677      5679      5677      5680      5680      5681      5680      5682
      5680      5683      5683      5684      5685      5686      5685      5687
      5687      5688      5687      5689      5687      5690      5690      5691
      5690      5692      5690      5693      5693      5694      5693      5695
      5693      5696      5696      5697      5696      5698      5696      5699
      5699      5700      5699      5701      5699      5702      5702      5703
      5702      5704      5702      5705      5705      5706      5705      5707
      5705      5708      5708      5709      5708      5710      5708      5711
      5616      5618      5683      5685      5660      5661      5712      5714
      5712      5713      5714      5715      5712      5758      5758      5759
      5758      5760      5758      5755      5755      5756      5755      5757
      5712      5716      5716      5717      5716      5718      5716      5719
      5719      5750      5750      5755      5750      5751      5751      5752
      5751      5753      5751      5754      5719      5720      5720      5721
      5720      5722      5722      5723      5722      5724      5722      5725
      5725      5726      5725      5748      5748      5749      5748      5750
      5725      5727      5727      5728      5727      5737      5737      5742
      5742      5743      5742      5744      5742      5745      5745      5746
      5745      5747      5745      5748      5737      5738      5738      5739
      5738      5740      5738      5741      5727      5729      5729      5730
      5729      5731      5729      5732      5732      5733      5732      5734
      5732      5735      5735      5736      5735      5737      5735      5761
      5761      5762      5761      5763      5763      5764      5763      5765
      5763      5766      5761      5767      5767      5768      5767      5769
      5767      5770      5770      5771      5770      5772      5770      5773
      5773      5774      5773      5775      5773      5776      5776      5777
      5776      5778      5778      5779      5778      5780      5778      5781
      5776      5782      5782      5783      5782      5784      5782      5785
      5861      5862      5861      5863      5861      5864      5861      5858
      5858      5859      5858      5860      5858      5855      5855      5856
      5855      5857      5855      5852      5852      5853      5852      5854
      5852      5849      5849      5850      5849      5851      5849      5846
      5846      5847      5846      5848      5846      5843      5843      5844
      5843      5845      5843      5840      5840      5841      5840      5842
      5840      5837      5837      5838      5837      5839      5837      5834
      5834      5835      5834      5836      5834      5831      5831      5832
      5831      5833      5831      5828      5828      5829      5828      5830
      5828      5825      5825      5826      5825      5827      5825      5823
      5823      5824      5821      5822      5821      5817      5817      5818
      5817      5819      5819      5820      5817      5815      5815      5816
      5815      5810      5810      5811      5810      5812      5810      5808
      5808      5805      5809      5805      5806      5805      5807      5805
      5809      5802      5802      5803      5802      5804      5802      5799
      5799      5800      5799      5801      5799      5786      5786      5795
      5786      5791      5786      5787      5795      5796      5795      5797
      5795      5798      5791      5792      5791      5793      5791      5794
      5787      5788      5787      5789      5787      5790      5815      5813
      5813      5814      5813      5865      5865      5867      5867      5868
      5867      5869      5867      5870      5870      5871      5870      5872
      5870      5873      5873      5874      5873      5875      5873      5876
      5876      5877      5876      5878      5876      5879      5879      5880
      5879      5881      5879      5882      5882      5883      5882      5884
      5882      5885      5885      5886      5885      5887      5885      5888
      5888      5889      5890      5891      5890      5892      5892      5893
      5892      5894      5892      5895      5895      5896      5895      5897
      5895      5898      5898      5899      5898      5900      5898      5901
      5901      5902      5901      5903      5901      5904      5904      5905
      5904      5906      5904      5907      5907      5908      5907      5909
      5907      5910      5910      5911      5910      5912      5910      5913
      5913      5914      5913      5915      5913      5916      5821      5823
      5888      5890      5865      5866      5917      5919      5917      5918
      5919      5920      5917      5963      5963      5964      5963      5965
      5963      5960      5960      5961      5960      5962      5917      5921
      5921      5922      5921      5923      5921      5924      5924      5955
      5955      5960      5955      5956      5956      5957      5956      5958
      5956      5959      5924      5925      5925      5926      5925      5927
      5927      5928      5927      5929      5927      5930      5930      5931
      5930      5953      5953      5954      5953      5955      5930      5932
      5932      5933      5932      5942      5942      5947      5947      5948
      5947      5949      5947      5950      5950      5951      5950      5952
      5950      5953      5942      5943      5943      5944      5943      5945
      5943      5946      5932      5934      5934      5935      5934      5936
      5934      5937      5937      5938      5937      5939      5937      5940
      5940      5941      5940      5942      5940      5966      5966      5967
      5966      5968      5968      5969      5968      5970      5968      5971
      5966      5972      5972      5973      5972      5974      5972      5975
      5975      5976      5975      5977      5975      5978      5978      5979
      5978      5980      5978      5981      5981      5982      5981      5983
      5983      5984      5983      5985      5983      5986      5981      5987
      5987      5988      5987      5989      5987      5990      5991      5993
      5991      5992      5993      5994      5991      6037      6037      6038
      6037      6039      6037      6034      6034      6035      6034      6036
      5991      5995      5995      5996      5995      5997      5995      5998
      5998      6029      6029      6034      6029      6030      6030      6031
      6030      6032      6030      6033      5998      5999      5999      6000
      5999      6001      6001      6002      6001      6003      6001      6004
      6004      6005      6004      6027      6027      6028      6027      6029
      6004      6006      6006      6007      6006      6016      6016      6021
      6021      6022      6021      6023      6021      6024      6024      6025
      6024      6026      6024      6027      6016      6017      6017      6018
      6017      6019      6017      6020      6006      6008      6008      6009
      6008      6010      6008      6011      6011      6012      6011      6013
      6011      6014      6014      6015      6014      6016      6014      6040
      6040      6041      6040      6042      6042      6043      6042      6044
      6042      6045      6040      6046      6046      6047      6046      6048
      6046      6049      6049      6050      6049      6051      6049      6052
      6052      6053      6052      6054      6052      6055      6055      6056
      6055      6057      6057      6058      6057      6059      6057      6060
      6055      6061      6061      6062      6061      6063      6061      6064
      6140      6141      6140      6142      6140      6143      6140      6137
      6137      6138      6137      6139      6137      6134      6134      6135
      6134      6136      6134      6131      6131      6132      6131      6133
      6131      6128      6128      6129      6128      6130      6128      6125
      6125      6126      6125      6127      6125      6122      6122      6123
      6122      6124      6122      6119      6119      6120      6119      6121
      6119      6116      6116      6117      6116      6118      6116      6113
      6113      6114      6113      6115      6113      6110      6110      6111
      6110      6112      6110      6107      6107      6108      6107      6109
      6107      6104      6104      6105      6104      6106      6104      6102
      6102      6103      6100      6101      6100      6096      6096      6097
      6096      6098      6098      6099      6096      6094      6094      6095
      6094      6089      6089      6090      6089      6091      6089      6087
      6087      6084      6088      6084      6085      6084      6086      6084
      6088      6081      6081      6082      6081      6083      6081      6078
      6078      6079      6078      6080      6078      6065      6065      6074
      6065      6070      6065      6066      6074      6075      6074      6076
      6074      6077      6070      6071      6070      6072      6070      6073
      6066      6067      6066      6068      6066      6069      6094      6092
      6092      6093      6092      6144      6144      6146      6146      6147
      6146      6148      6146      6149      6149      6150      6149      6151
      6149      6152      6152      6153      6152      6154      6152      6155
      6155      6156      6155      6157      6155      6158      6158      6159
      6158      6160      6158      6161      6161      6162      6161      6163
      6161      6164      6164      6165      6164      6166      6164      6167
      6167      6168      6169      6170      6169      6171      6171      6172
      6171      6173      6171      6174      6174      6175      6174      6176
      6174      6177      6177      6178      6177      6179      6177      6180
      6180      6181      6180      6182      6180      6183      6183      6184
      6183      6185      6183      6186      6186      6187      6186      6188
      6186      6189      6189      6190      6189      6191      6189      6192
      6192      6193      6192      6194      6192      6195      6100      6102
      6167      6169      6144      6145      6196      6200      6196      6204
      6196      6208      6200      6201      6200      6202      6200      6203
      6204      6205      6204      6206      6204      6207      6208      6209
      6208      6210      6208      6211      6196      6197      6197      6198
      6197      6199      6197      6212      6212      6213      6212      6214
      6212      6218      6219      6220      6218      6215      6215      6219
      6215      6216      6215      6217      6220      6221      6220      6222
      6220      6223      6223      6224      6223      6231      6223      6225
      6231      6232      6231      6233      6231      6234      6225      6226
      6226      6228      6226      6227      6228      6229      6228      6230
      6228      6240      6240      6241      6240      6242      6240      6243
      6243      6244      6243      6245      6243      6246      6246      6247
      6246      6248      6248      6249      6248      6250      6250      6251
      6250      6252      6250      6253      6253      6254      6253      6255
      6255      6256      6255      6257      6257      6258      6257      6259
      6257      6260      6260      6261      6260      6262      6262      6263
      6262      6264      6264      6265      6264      6266      6264      6267
      6267      6268      6267      6269      6269      6270      6269      6271
      6271      6272      6271      6273      6271      6274      6274      6275
      6274      6276      6274      6277      6277      6278      6277      6279
      6277      6280      6280      6281      6280      6282      6280      6283
      6283      6284      6283      6285      6283      6286      6234      6235
      6235      6237      6235      6236      6237      6238      6237      6239
      6237      6287      6287      6288      6287      6289      6287      6290
      6290      6291      6290      6292      6290      6293      6293      6294
      6293      6295      6293      6296      6296      6297      6296      6298
      6296      6299      6299      6300      6299      6301      6299      6302
      6302      6303      6302      6304      6302      6305      6305      6306
      6305      6307      6305      6308      6308      6309      6308      6310
      6308      6311      6311      6312      6311      6313      6311      6314
      6314      6315      6314      6316      6314      6317      6317      6318
      6317      6319      6317      6320      6320      6321      6320      6322
      6320      6323      6323      6324      6323      6325      6323      6326
      6326      6327      6326      6328      6326      6329      6329      6330
      6329      6331      6329      6332      6332      6333      6332      6334
      6332      6335      6411      6412      6411      6413      6411      6414
      6411      6408      6408      6409      6408      6410      6408      6405
      6405      6406      6405      6407      6405      6402      6402      6403
      6402      6404      6402      6399      6399      6400      6399      6401
      6399      6396      6396      6397      6396      6398      6396      6393
      6393      6394      6393      6395      6393      6390      6390      6391
      6390      6392      6390      6387      6387      6388      6387      6389
      6387      6384      6384      6385      6384      6386      6384      6381
      6381      6382      6381      6383      6381      6378      6378      6379
      6378      6380      6378      6375      6375      6376      6375      6377
      6375      6373      6373      6374      6371      6372      6371      6367
      6367      6368      6367      6369      6369      6370      6367      6365
      6365      6366      6365      6360      6360      6361      6360      6362
      6360      6358      6358      6355      6359      6355      6356      6355
      6357      6355      6359      6352      6352      6353      6352      6354
      6352      6349      6349      6350      6349      6351      6349      6336
      6336      6345      6336      6341      6336      6337      6345      6346
      6345      6347      6345      6348      6341      6342      6341      6343
      6341      6344      6337      6338      6337      6339      6337      6340
      6365      6363      6363      6364      6363      6415      6415      6417
      6417      6418      6417      6419      6417      6420      6420      6421
      6420      6422      6420      6423      6423      6424      6423      6425
      6423      6426      6426      6427      6426      6428      6426      6429
      6429      6430      6429      6431      6429      6432      6432      6433
      6432      6434      6432      6435      6435      6436      6435      6437
      6435      6438      6438      6439      6440      6441      6440      6442
      6442      6443      6442      6444      6442      6445      6445      6446
      6445      6447      6445      6448      6448      6449      6448      6450
      6448      6451      6451      6452      6451      6453      6451      6454
      6454      6455      6454      6456      6454      6457      6457      6458
      6457      6459      6457      6460      6460      6461      6460      6462
      6460      6463      6463      6464      6463      6465      6463      6466
      6371      6373      6438      6440      6415      6416      6467      6468
      6467      6472      6467      6476      6468      6469      6468      6470
      6468      6471      6472      6473      6472      6474      6472      6475
      6476      6477      6476      6478      6476      6479      6467      6480
      6480      6481      6480      6482      6480      6483      6483      6484
      6483      6485      6483      6489      6490      6491      6489      6486
      6486      6490      6486      6487      6486      6488      6491      6492
      6491      6493      6491      6494      6494      6495      6494      6502
      6494      6496      6502      6503      6502      6504      6502      6505
      6496      6497      6497      6499      6497      6498      6499      6500
      6499      6501      6499      6511      6511      6512      6511      6513
      6511      6514      6514      6515      6514      6516      6514      6517
      6517      6518      6517      6519      6517      6520      6520      6521
      6520      6522      6520      6523      6523      6524      6523      6525
      6523      6526      6526      6527      6526      6528      6526      6529
      6529      6530      6529      6531      6531      6532      6531      6533
      6533      6534      6533      6535      6533      6536      6536      6537
      6536      6538      6538      6539      6538      6540      6540      6541
      6540      6542      6540      6543      6543      6544      6543      6545
      6543      6546      6546      6547      6546      6548      6546      6549
      6549      6550      6549      6551      6549      6552      6552      6553
      6552      6554      6552      6555      6505      6506      6506      6508
      6506      6507      6508      6509      6508      6510      6508      6556
      6556      6557      6556      6558      6556      6559      6559      6560
      6559      6561      6559      6562      6562      6563      6562      6564
      6562      6565      6565      6566      6565      6567      6565      6568
      6568      6569      6568      6570      6568      6571      6571      6572
      6571      6573      6571      6574      6574      6575      6574      6576
      6574      6577      6577      6578      6577      6579      6577      6580
      6580      6581      6580      6582      6580      6583      6583      6584
      6583      6585      6583      6586      6586      6587      6586      6588
      6586      6589      6589      6590      6589      6591      6589      6592
      6592      6593      6592      6594      6592      6595      6595      6596
      6595      6597      6595      6598      6598      6599      6598      6600
      6598      6601      6601      6602      6601      6603      6601      6604
      6605      6606      6605      6607      6605      6608      6605      6609
      6609      6610      6609      6611      6609      6612      6612      6613
      6612      6614      6612      6618      6620      6619      6618      6615
      6615      6619      6615      6616      6615      6617      6620      6621
      6620      6622      6620      6623      6623      6624      6623      6631
      6623      6625      6631      6632      6631      6633      6631      6634
      6625      6626      6626      6628      6626      6627      6628      6629
      6628      6630      6628      6640      6640      6641      6640      6642
      6640      6643      6643      6644      6643      6645      6643      6646
      6646      6647      6646      6648      6648      6649      6648      6650
      6650      6651      6650      6652      6650      6653      6653      6654
      6653      6655      6655      6656      6655      6657      6657      6658
      6657      6659      6657      6660      6660      6661      6660      6662
      6662      6663      6662      6664      6664      6665      6664      6666
      6664      6667      6667      6668      6667      6669      6669      6670
      6669      6671      6671      6672      6671      6673      6671      6674
      6674      6675      6674      6676      6674      6677      6677      6678
      6677      6679      6677      6680      6680      6681      6680      6682
      6680      6683      6683      6684      6683      6685      6683      6686
      6634      6635      6635      6637      6635      6636      6637      6638
      6637      6639      6637      6687      6687      6688      6687      6689
      6687      6690      6690      6691      6690      6692      6690      6693
      6693      6694      6693      6695      6693      6696      6696      6697
      6696      6698      6696      6699      6699      6700      6699      6701
      6699      6702      6702      6703      6702      6704      6702      6705
      6705      6706      6705      6707      6705      6708      6708      6709
      6708      6710      6708      6711      6711      6712      6711      6713
      6711      6714      6714      6715      6714      6716      6714      6717
      6717      6718      6717      6719      6717      6720      6720      6721
      6720      6722      6720      6723      6723      6724      6723      6725
      6723      6726      6726      6727      6726      6728      6726      6729
      6729      6730      6729      6731      6729      6732      6732      6733
      6732      6734      6732      6735      6736      6737      6736      6738
      6736      6739      6736      6740      6740      6741      6740      6742
      6740      6743      6743      6744      6743      6745      6743      6749
      6751      6750      6749      6746      6746      6750      6746      6747
      6746      6748      6751      6752      6751      6753      6751      6754
      6754      6755      6754      6762      6754      6756      6762      6763
      6762      6764      6762      6765      6756      6757      6757      6759
      6757      6758      6759      6760      6759      6761      6759      6771
      6771      6772      6771      6773      6771      6774      6774      6775
      6774      6776      6774      6777      6777      6778      6777      6779
      6779      6780      6779      6781      6781      6782      6781      6783
      6781      6784      6784      6785      6784      6786      6786      6787
      6786      6788      6788      6789      6788      6790      6788      6791
      6791      6792      6791      6793      6793      6794      6793      6795
      6795      6796      6795      6797      6795      6798      6798      6799
      6798      6800      6800      6801      6800      6802      6802      6803
      6802      6804      6802      6805      6805      6806      6805      6807
      6805      6808      6808      6809      6808      6810      6808      6811
      6811      6812      6811      6813      6811      6814      6814      6815
      6814      6816      6814      6817      6765      6766      6766      6768
      6766      6767      6768      6769      6768      6770      6768      6818
      6818      6819      6818      6820      6818      6821      6821      6822
      6821      6823      6821      6824      6824      6825      6824      6826
      6824      6827      6827      6828      6827      6829      6827      6830
      6830      6831      6830      6832      6830      6833      6833      6834
      6833      6835      6833      6836      6836      6837      6836      6838
      6836      6839      6839      6840      6839      6841      6839      6842
      6842      6843      6842      6844      6842      6845      6845      6846
      6845      6847      6845      6848      6848      6849      6848      6850
      6848      6851      6851      6852      6851      6853      6851      6854
      6854      6855      6854      6856      6854      6857      6857      6858
      6857      6859      6857      6860      6860      6861      6860      6862
      6860      6863      6863      6864      6863      6865      6863      6866
      6867      6868      6867      6869      6867      6870      6867      6871
      6871      6872      6871      6873      6871      6874      6874      6875
      6874      6876      6874      6880      6882      6881      6880      6877
      6877      6881      6877      6878      6877      6879      6882      6883
      6882      6884      6882      6885      6885      6886      6885      6893
      6885      6887      6893      6894      6893      6895      6893      6896
      6887      6888      6888      6890      6888      6889      6890      6891
      6890      6892      6890      6902      6902      6903      6902      6904
      6902      6905      6905      6906      6905      6907      6905      6908
      6908      6909      6908      6910      6908      6911      6911      6912
      6911      6913      6911      6914      6914      6915      6914      6916
      6914      6917      6917      6918      6917      6919      6917      6920
      6920      6921      6920      6922      6922      6923      6922      6924
      6924      6925      6924      6926      6924      6927      6927      6928
      6927      6929      6927      6930      6930      6931      6930      6932
      6930      6933      6933      6934      6933      6935      6933      6936
      6936      6937      6936      6938      6936      6939      6939      6940
      6939      6941      6939      6942      6942      6943      6942      6944
      6942      6945      6945      6946      6945      6947      6945      6948
      6896      6897      6897      6899      6897      6898      6899      6900
      6899      6901      6899      6949      6949      6950      6949      6951
      6949      6952      6952      6953      6952      6954      6952      6955
      6955      6956      6955      6957      6955      6958      6958      6959
      6958      6960      6958      6961      6961      6962      6961      6963
      6961      6964      6964      6965      6964      6966      6964      6967
      6967      6968      6967      6969      6967      6970      6970      6971
      6970      6972      6970      6973      6973      6974      6973      6975
      6973      6976      6976      6977      6976      6978      6976      6979
      6979      6980      6979      6981      6979      6982      6982      6983
      6982      6984      6982      6985      6985      6986      6985      6987
      6985      6988      6988      6989      6988      6990      6988      6991
      6991      6992      6991      6993      6991      6994      6994      6995
      6994      6996      6994      6997      6998      6999      6998      7000
      6998      7001      6998      7002      7002      7003      7002      7004
      7002      7005      7005      7006      7005      7007      7005      7011
      7013      7012      7011      7008      7008      7012      7008      7009
      7008      7010      7013      7014      7013      7015      7013      7016
      7016      7017      7016      7024      7016      7018      7024      7025
      7024      7026      7024      7027      7018      7019      7019      7021
      7019      7020      7021      7022      7021      7023      7021      7033
      7033      7034      7033      7035      7033      7036      7036      7037
      7036      7038      7036      7039      7039      7040      7039      7041
      7041      7042      7041      7043      7043      7044      7043      7045
      7043      7046      7046      7047      7046      7048      7048      7049
      7048      7050      7050      7051      7050      7052      7050      7053
      7053      7054      7053      7055      7055      7056      7055      7057
      7057      7058      7057      7059      7057      7060      7060      7061
      7060      7062      7062      7063      7062      7064      7064      7065
      7064      7066      7064      7067      7067      7068      7067      7069
      7067      7070      7070      7071      7070      7072      7070      7073
      7073      7074      7073      7075      7073      7076      7076      7077
      7076      7078      7076      7079      7027      7028      7028      7030
      7028      7029      7030      7031      7030      7032      7030      7080
      7080      7081      7080      7082      7080      7083      7083      7084
      7083      7085      7083      7086      7086      7087      7086      7088
      7086      7089      7089      7090      7089      7091      7089      7092
      7092      7093      7092      7094      7092      7095      7095      7096
      7095      7097      7095      7098      7098      7099      7098      7100
      7098      7101      7101      7102      7101      7103      7101      7104
      7104      7105      7104      7106      7104      7107      7107      7108
      7107      7109      7107      7110      7110      7111      7110      7112
      7110      7113      7113      7114      7113      7115      7113      7116
      7116      7117      7116      7118      7116      7119      7119      7120
      7119      7121      7119      7122      7122      7123      7122      7124
      7122      7125      7125      7126      7125      7127      7125      7128
      7129      7133      7129      7137      7129      7141      7133      7134
      7133      7135      7133      7136      7137      7138      7137      7139
      7137      7140      7141      7142      7141      7143      7141      7144
      7129      7130      7130      7131      7130      7132      7130      7145
      7145      7146      7145      7147      7145      7151      7152      7153
      7151      7148      7148      7152      7148      7149      7148      7150
      7153      7154      7153      7155      7153      7156      7156      7157
      7156      7164      7156      7158      7164      7165      7164      7166
      7164      7167      7158      7159      7159      7161      7159      7160
      7161      7162      7161      7163      7161      7173      7173      7174
      7173      7175      7173      7176      7176      7177      7176      7178
      7176      7179      7179      7180      7179      7181      7181      7182
      7181      7183      7183      7184      7183      7185      7183      7186
      7186      7187      7186      7188      7188      7189      7188      7190
      7190      7191      7190      7192      7190      7193      7193      7194
      7193      7195      7195      7196      7195      7197      7197      7198
      7197      7199      7197      7200      7200      7201      7200      7202
      7202      7203      7202      7204      7204      7205      7204      7206
      7204      7207      7207      7208      7207      7209      7207      7210
      7210      7211      7210      7212      7210      7213      7213      7214
      7213      7215      7213      7216      7216      7217      7216      7218
      7216      7219      7167      7168      7168      7170      7168      7169
      7170      7171      7170      7172      7170      7220      7220      7221
      7220      7222      7220      7223      7223      7224      7223      7225
      7223      7226      7226      7227      7226      7228      7226      7229
      7229      7230      7229      7231      7229      7232      7232      7233
      7232      7234      7232      7235      7235      7236      7235      7237
      7235      7238      7238      7239      7238      7240      7238      7241
      7241      7242      7241      7243      7241      7244      7244      7245
      7244      7246      7244      7247      7247      7248      7247      7249
      7247      7250      7250      7251      7250      7252      7250      7253
      7253      7254      7253      7255      7253      7256      7256      7257
      7256      7258      7256      7259      7259      7260      7259      7261
      7259      7262      7262      7263      7262      7264      7262      7265
      7265      7266      7265      7267      7265      7268      7344      7345
      7344      7346      7344      7347      7344      7341      7341      7342
      7341      7343      7341      7338      7338      7339      7338      7340
      7338      7335      7335      7336      7335      7337      7335      7332
      7332      7333      7332      7334      7332      7329      7329      7330
      7329      7331      7329      7326      7326      7327      7326      7328
      7326      7323      7323      7324      7323      7325      7323      7320
      7320      7321      7320      7322      7320      7317      7317      7318
      7317      7319      7317      7314      7314      7315      7314      7316
      7314      7311      7311      7312      7311      7313      7311      7308
      7308      7309      7308      7310      7308      7306      7306      7307
      7304      7305      7304      7300      7300      7301      7300      7302
      7302      7303      7300      7298      7298      7299      7298      7293
      7293      7294      7293      7295      7293      7291      7291      7288
      7292      7288      7289      7288      7290      7288      7292      7285
      7285      7286      7285      7287      7285      7282      7282      7283
      7282      7284      7282      7269      7269      7278      7269      7274
      7269      7270      7278      7279      7278      7280      7278      7281
      7274      7275      7274      7276      7274      7277      7270      7271
      7270      7272      7270      7273      7298      7296      7296      7297
      7296      7348      7348      7350      7350      7351      7350      7352
      7350      7353      7353      7354      7353      7355      7353      7356
      7356      7357      7356      7358      7356      7359      7359      7360
      7359      7361      7359      7362      7362      7363      7362      7364
      7362      7365      7365      7366      7365      7367      7365      7368
      7368      7369      7368      7370      7368      7371      7371      7372
      7373      7374      7373      7375      7375      7376      7375      7377
      7375      7378      7378      7379      7378      7380      7378      7381
      7381      7382      7381      7383      7381      7384      7384      7385
      7384      7386      7384      7387      7387      7388      7387      7389
      7387      7390      7390      7391      7390      7392      7390      7393
      7393      7394      7393      7395      7393      7396      7396      7397
      7396      7398      7396      7399      7304      7306      7371      7373
      7348      7349      7400      7402      7400      7401      7402      7403
      7400      7446      7446      7447      7446      7448      7446      7443
      7443      7444      7443      7445      7400      7404      7404      7405
      7404      7406      7404      7407      7407      7438      7438      7443
      7438      7439      7439      7440      7439      7441      7439      7442
      7407      7408      7408      7409      7408      7410      7410      7411
      7410      7412      7410      7413      7413      7414      7413      7436
      7436      7437      7436      7438      7413      7415      7415      7416
      7415      7425      7425      7430      7430      7431      7430      7432
      7430      7433      7433      7434      7433      7435      7433      7436
      7425      7426      7426      7427      7426      7428      7426      7429
      7415      7417      7417      7418      7417      7419      7417      7420
      7420      7421      7420      7422      7420      7423      7423      7424
      7423      7425      7423      7449      7449      7450      7449      7451
      7451      7452      7451      7453      7451      7454      7449      7455
      7455      7456      7455      7457      7455      7458      7458      7459
      7458      7460      7458      7461      7461      7462      7461      7463
      7461      7464      7464      7465      7464      7466      7466      7467
      7466      7468      7466      7469      7464      7470      7470      7471
      7470      7472      7470      7473      7474      7476      7474      7475
      7476      7477      7474      7520      7520      7521      7520      7522
      7520      7517      7517      7518      7517      7519      7474      7478
      7478      7479      7478      7480      7478      7481      7481      7512
      7512      7517      7512      7513      7513      7514      7513      7515
      7513      7516      7481      7482      7482      7483      7482      7484
      7484      7485      7484      7486      7484      7487      7487      7488
      7487      7510      7510      7511      7510      7512      7487      7489
      7489      7490      7489      7499      7499      7504      7504      7505
      7504      7506      7504      7507      7507      7508      7507      7509
      7507      7510      7499      7500      7500      7501      7500      7502
      7500      7503      7489      7491      7491      7492      7491      7493
      7491      7494      7494      7495      7494      7496      7494      7497
      7497      7498      7497      7499      7497      7523      7523      7524
      7523      7525      7525      7526      7525      7527      7525      7528
      7523      7529      7529      7530      7529      7531      7529      7532
      7532      7533      7532      7534      7532      7535      7535      7536
      7535      7537      7535      7538      7538      7539      7538      7540
      7540      7541      7540      7542      7540      7543      7538      7544
      7544      7545      7544      7546      7544      7547      7548      7550
      7548      7549      7550      7551      7548      7594      7594      7595
      7594      7596      7594      7591      7591      7592      7591      7593
      7548      7552      7552      7553      7552      7554      7552      7555
      7555      7586      7586      7591      7586      7587      7587      7588
      7587      7589      7587      7590      7555      7556      7556      7557
      7556      7558      7558      7559      7558      7560      7558      7561
      7561      7562      7561      7584      7584      7585      7584      7586
      7561      7563      7563      7564      7563      7573      7573      7578
      7578      7579      7578      7580      7578      7581      7581      7582
      7581      7583      7581      7584      7573      7574      7574      7575
      7574      7576      7574      7577      7563      7565      7565      7566
      7565      7567      7565      7568      7568      7569      7568      7570
      7568      7571      7571      7572      7571      7573      7571      7597
      7597      7598      7597      7599      7599      7600      7599      7601
      7599      7602      7597      7603      7603      7604      7603      7605
      7603      7606      7606      7607      7606      7608      7606      7609
      7609      7610      7609      7611      7609      7612      7612      7613
      7612      7614      7614      7615      7614      7616      7614      7617
      7612      7618      7618      7619      7618      7620      7618      7621
      7622      7623      7622      7624      7622      7625      7622      7626
      7626      7627      7626      7628      7626      7629      7629      7630
      7629      7631      7629      7635      7637      7636      7635      7632
      7632      7636      7632      7633      7632      7634      7637      7638
      7637      7639      7637      7640      7640      7641      7640      7648
      7640      7642      7648      7649      7648      7650      7648      7651
      7642      7643      7643      7645      7643      7644      7645      7646
      7645      7647      7645      7657      7657      7658      7657      7659
      7657      7660      7660      7661      7660      7662      7660      7663
      7663      7664      7663      7665      7665      7666      7665      7667
      7667      7668      7667      7669      7667      7670      7670      7671
      7670      7672      7672      7673      7672      7674      7674      7675
      7674      7676      7674      7677      7677      7678      7677      7679
      7679      7680      7679      7681      7681      7682      7681      7683
      7681      7684      7684      7685      7684      7686      7686      7687
      7686      7688      7688      7689      7688      7690      7688      7691
      7691      7692      7691      7693      7691      7694      7694      7695
      7694      7696      7694      7697      7697      7698      7697      7699
      7697      7700      7700      7701      7700      7702      7700      7703
      7651      7652      7652      7654      7652      7653      7654      7655
      7654      7656      7654      7704      7704      7705      7704      7706
      7704      7707      7707      7708      7707      7709      7707      7710
      7710      7711      7710      7712      7710      7713      7713      7714
      7713      7715      7713      7716      7716      7717      7716      7718
      7716      7719      7719      7720      7719      7721      7719      7722
      7722      7723      7722      7724      7722      7725      7725      7726
      7725      7727      7725      7728      7728      7729      7728      7730
      7728      7731      7731      7732      7731      7733      7731      7734
      7734      7735      7734      7736      7734      7737      7737      7738
      7737      7739      7737      7740      7740      7741      7740      7742
      7740      7743      7743      7744      7743      7745      7743      7746
      7746      7747      7746      7748      7746      7749      7749      7750
      7749      7751      7749      7752      7753      7754      7753      7755
      7753      7756      7753      7757      7757      7758      7757      7759
      7757      7760      7760      7761      7760      7762      7760      7766
      7768      7767      7766      7763      7763      7767      7763      7764
      7763      7765      7768      7769      7768      7770      7768      7771
      7771      7772      7771      7779      7771      7773      7779      7780
      7779      7781      7779      7782      7773      7774      7774      7776
      7774      7775      7776      7777      7776      7778      7776      7788
      7788      7789      7788      7790      7788      7791      7791      7792
      7791      7793      7791      7794      7794      7795      7794      7796
      7794      7797      7797      7798      7797      7799      7797      7800
      7800      7801      7800      7802      7800      7803      7803      7804
      7803      7805      7803      7806      7806      7807      7806      7808
      7808      7809      7808      7810      7810      7811      7810      7812
      7810      7813      7813      7814      7813      7815      7813      7816
      7816      7817      7816      7818      7816      7819      7819      7820
      7819      7821      7819      7822      7822      7823      7822      7824
      7822      7825      7825      7826      7825      7827      7825      7828
      7828      7829      7828      7830      7828      7831      7831      7832
      7831      7833      7831      7834      7782      7783      7783      7785
      7783      7784      7785      7786      7785      7787      7785      7835
      7835      7836      7835      7837      7835      7838      7838      7839
      7838      7840      7838      7841      7841      7842      7841      7843
      7841      7844      7844      7845      7844      7846      7844      7847
      7847      7848      7847      7849      7847      7850      7850      7851
      7850      7852      7850      7853      7853      7854      7853      7855
      7853      7856      7856      7857      7856      7858      7856      7859
      7859      7860      7859      7861      7859      7862      7862      7863
      7862      7864      7862      7865      7865      7866      7865      7867
      7865      7868      7868      7869      7868      7870      7868      7871
      7871      7872      7871      7873      7871      7874      7874      7875
      7874      7876      7874      7877      7877      7878      7877      7879
      7877      7880      7880      7881      7880      7882      7880      7883
      7959      7960      7959      7961      7959      7962      7959      7956
      7956      7957      7956      7958      7956      7953      7953      7954
      7953      7955      7953      7950      7950      7951      7950      7952
      7950      7947      7947      7948      7947      7949      7947      7944
      7944      7945      7944      7946      7944      7941      7941      7942
      7941      7943      7941      7938      7938      7939      7938      7940
      7938      7935      7935      7936      7935      7937      7935      7932
      7932      7933      7932      7934      7932      7929      7929      7930
      7929      7931      7929      7926      7926      7927      7926      7928
      7926      7923      7923      7924      7923      7925      7923      7921
      7921      7922      7919      7920      7919      7915      7915      7916
      7915      7917      7917      7918      7915      7913      7913      7914
      7913      7908      7908      7909      7908      7910      7908      7906
      7906      7903      7907      7903      7904      7903      7905      7903
      7907      7900      7900      7901      7900      7902      7900      7897
      7897      7898      7897      7899      7897      7884      7884      7893
      7884      7889      7884      7885      7893      7894      7893      7895
      7893      7896      7889      7890      7889      7891      7889      7892
      7885      7886      7885      7887      7885      7888      7913      7911
      7911      7912      7911      7963      7963      7965      7965      7966
      7965      7967      7965      7968      7968      7969      7968      7970
      7968      7971      7971      7972      7971      7973      7971      7974
      7974      7975      7974      7976      7974      7977      7977      7978
      7977      7979      7977      7980      7980      7981      7980      7982
      7980      7983      7983      7984      7983      7985      7983      7986
      7986      7987      7988      7989      7988      7990      7990      7991
      7990      7992      7990      7993      7993      7994      7993      7995
      7993      7996      7996      7997      7996      7998      7996      7999
      7999      8000      7999      8001      7999      8002      8002      8003
      8002      8004      8002      8005      8005      8006      8005      8007
      8005      8008      8008      8009      8008      8010      8008      8011
      8011      8012      8011      8013      8011      8014      7919      7921
      7986      7988      7963      7964      8015      8019      8015      8023
      8015      8027      8019      8020      8019      8021      8019      8022
      8023      8024      8023      8025      8023      8026      8027      8028
      8027      8029      8027      8030      8015      8016      8016      8017
      8016      8018      8016      8031      8031      8032      8031      8033
      8031      8037      8038      8039      8037      8034      8034      8038
      8034      8035      8034      8036      8039      8040      8039      8041
      8039      8042      8042      8043      8042      8050      8042      8044
      8050      8051      8050      8052      8050      8053      8044      8045
      8045      8047      8045      8046      8047      8048      8047      8049
      8047      8059      8059      8060      8059      8061      8059      8062
      8062      8063      8062      8064      8062      8065      8065      8066
      8065      8067      8067      8068      8067      8069      8069      8070
      8069      8071      8069      8072      8072      8073      8072      8074
      8074      8075      8074      8076      8076      8077      8076      8078
      8076      8079      8079      8080      8079      8081      8081      8082
      8081      8083      8083      8084      8083      8085      8083      8086
      8086      8087      8086      8088      8088      8089      8088      8090
      8090      8091      8090      8092      8090      8093      8093      8094
      8093      8095      8093      8096      8096      8097      8096      8098
      8096      8099      8099      8100      8099      8101      8099      8102
      8102      8103      8102      8104      8102      8105      8053      8054
      8054      8056      8054      8055      8056      8057      8056      8058
      8056      8106      8106      8107      8106      8108      8106      8109
      8109      8110      8109      8111      8109      8112      8112      8113
      8112      8114      8112      8115      8115      8116      8115      8117
      8115      8118      8118      8119      8118      8120      8118      8121
      8121      8122      8121      8123      8121      8124      8124      8125
      8124      8126      8124      8127      8127      8128      8127      8129
      8127      8130      8130      8131      8130      8132      8130      8133
      8133      8134      8133      8135      8133      8136      8136      8137
      8136      8138      8136      8139      8139      8140      8139      8141
      8139      8142      8142      8143      8142      8144      8142      8145
      8145      8146      8145      8147      8145      8148      8148      8149
      8148      8150      8148      8151      8151      8152      8151      8153
      8151      8154      8155      8157      8155      8156      8157      8158
      8155      8201      8201      8202      8201      8203      8201      8198
      8198      8199      8198      8200      8155      8159      8159      8160
      8159      8161      8159      8162      8162      8193      8193      8198
      8193      8194      8194      8195      8194      8196      8194      8197
      8162      8163      8163      8164      8163      8165      8165      8166
      8165      8167      8165      8168      8168      8169      8168      8191
      8191      8192      8191      8193      8168      8170      8170      8171
      8170      8180      8180      8185      8185      8186      8185      8187
      8185      8188      8188      8189      8188      8190      8188      8191
      8180      8181      8181      8182      8181      8183      8181      8184
      8170      8172      8172      8173      8172      8174      8172      8175
      8175      8176      8175      8177      8175      8178      8178      8179
      8178      8180      8178      8204      8204      8205      8204      8206
      8206      8207      8206      8208      8206      8209      8204      8210
      8210      8211      8210      8212      8210      8213      8213      8214
      8213      8215      8213      8216      8216      8217      8216      8218
      8216      8219      8219      8220      8219      8221      8221      8222
      8221      8223      8221      8224      8219      8225      8225      8226
      8225      8227      8225      8228      8304      8305      8304      8306
      8304      8307      8304      8301      8301      8302      8301      8303
      8301      8298      8298      8299      8298      8300      8298      8295
      8295      8296      8295      8297      8295      8292      8292      8293
      8292      8294      8292      8289      8289      8290      8289      8291
      8289      8286      8286      8287      8286      8288      8286      8283
      8283      8284      8283      8285      8283      8280      8280      8281
      8280      8282      8280      8277      8277      8278      8277      8279
      8277      8274      8274      8275      8274      8276      8274      8271
      8271      8272      8271      8273      8271      8268      8268      8269
      8268      8270      8268      8266      8266      8267      8264      8265
      8264      8260      8260      8261      8260      8262      8262      8263
      8260      8258      8258      8259      8258      8253      8253      8254
      8253      8255      8253      8251      8251      8248      8252      8248
      8249      8248      8250      8248      8252      8245      8245      8246
      8245      8247      8245      8242      8242      8243      8242      8244
      8242      8229      8229      8238      8229      8234      8229      8230
      8238      8239      8238      8240      8238      8241      8234      8235
      8234      8236      8234      8237      8230      8231      8230      8232
      8230      8233      8258      8256      8256      8257      8256      8308
      8308      8310      8310      8311      8310      8312      8310      8313
      8313      8314      8313      8315      8313      8316      8316      8317
      8316      8318      8316      8319      8319      8320      8319      8321
      8319      8322      8322      8323      8322      8324      8322      8325
      8325      8326      8325      8327      8325      8328      8328      8329
      8328      8330      8328      8331      8331      8332      8333      8334
      8333      8335      8335      8336      8335      8337      8335      8338
      8338      8339      8338      8340      8338      8341      8341      8342
      8341      8343      8341      8344      8344      8345      8344      8346
      8344      8347      8347      8348      8347      8349      8347      8350
      8350      8351      8350      8352      8350      8353      8353      8354
      8353      8355      8353      8356      8356      8357      8356      8358
      8356      8359      8264      8266      8331      8333      8308      8309
      8360      8361      8360      8365      8360      8369      8361      8362
      8361      8363      8361      8364      8365      8366      8365      8367
      8365      8368      8369      8370      8369      8371      8369      8372
      8360      8373      8373      8374      8373      8375      8373      8376
      8376      8377      8376      8378      8376      8382      8383      8384
      8382      8379      8379      8383      8379      8380      8379      8381
      8384      8385      8384      8386      8384      8387      8387      8388
      8387      8395      8387      8389      8395      8396      8395      8397
      8395      8398      8389      8390      8390      8392      8390      8391
      8392      8393      8392      8394      8392      8404      8404      8405
      8404      8406      8404      8407      8407      8408      8407      8409
      8407      8410      8410      8411      8410      8412      8410      8413
      8413      8414      8413      8415      8413      8416      8416      8417
      8416      8418      8416      8419      8419      8420      8419      8421
      8419      8422      8422      8423      8422      8424      8424      8425
      8424      8426      8426      8427      8426      8428      8426      8429
      8429      8430      8429      8431      8431      8432      8431      8433
      8433      8434      8433      8435      8433      8436      8436      8437
      8436      8438      8436      8439      8439      8440      8439      8441
      8439      8442      8442      8443      8442      8444      8442      8445
      8445      8446      8445      8447      8445      8448      8398      8399
      8399      8401      8399      8400      8401      8402      8401      8403
      8401      8449      8449      8450      8449      8451      8449      8452
      8452      8453      8452      8454      8452      8455      8455      8456
      8455      8457      8455      8458      8458      8459      8458      8460
      8458      8461      8461      8462      8461      8463      8461      8464
      8464      8465      8464      8466      8464      8467      8467      8468
      8467      8469      8467      8470      8470      8471      8470      8472
      8470      8473      8473      8474      8473      8475      8473      8476
      8476      8477      8476      8478      8476      8479      8479      8480
      8479      8481      8479      8482      8482      8483      8482      8484
      8482      8485      8485      8486      8485      8487      8485      8488
      8488      8489      8488      8490      8488      8491      8491      8492
      8491      8493      8491      8494      8494      8495      8494      8496
      8494      8497      8498      8499      8498      8500      8498      8501
      8498      8502      8506      8504      8504      8502      8504      8505
      8502      8503      8502      8507      8515      8514      8507      8508
      8507      8509      8507      8513      8513      8510      8510      8514
      8510      8511      8510      8512      8515      8516      8515      8517
      8515      8518      8518      8519      8518      8526      8518      8520
      8526      8527      8526      8528      8526      8529      8520      8521
      8521      8523      8521      8522      8523      8524      8523      8525
      8523      8535      8535      8536      8535      8537      8535      8538
      8538      8539      8538      8540      8538      8541      8541      8542
      8541      8543      8543      8544      8543      8545      8545      8546
      8545      8547      8545      8548      8548      8549      8548      8550
      8550      8551      8550      8552      8552      8553      8552      8554
      8552      8555      8555      8556      8555      8557      8557      8558
      8557      8559      8559      8560      8559      8561      8559      8562
      8562      8563      8562      8564      8564      8565      8564      8566
      8566      8567      8566      8568      8566      8569      8569      8570
      8569      8571      8569      8572      8572      8573      8572      8574
      8572      8575      8575      8576      8575      8577      8575      8578
      8578      8579      8578      8580      8578      8581      8529      8530
      8530      8532      8530      8531      8532      8533      8532      8534
      8532      8582      8582      8583      8582      8584      8582      8585
      8585      8586      8585      8587      8585      8588      8588      8589
      8588      8590      8588      8591      8591      8592      8591      8593
      8591      8594      8594      8595      8594      8596      8594      8597
      8597      8598      8597      8599      8597      8600      8600      8601
      8600      8602      8600      8603      8603      8604      8603      8605
      8603      8606      8606      8607      8606      8608      8606      8609
      8609      8610      8609      8611      8609      8612      8612      8613
      8612      8614      8612      8615      8615      8616      8615      8617
      8615      8618      8618      8619      8618      8620      8618      8621
      8621      8622      8621      8623      8621      8624      8624      8625
      8624      8626      8624      8627      8627      8628      8627      8629
      8627      8630      8631      8632      8631      8633      8631      8634
      8631      8635      8639      8637      8637      8635      8637      8638
      8635      8636      8635      8640      8648      8647      8640      8641
      8640      8642      8640      8646      8646      8643      8643      8647
      8643      8644      8643      8645      8648      8649      8648      8650
      8648      8651      8651      8652      8651      8659      8651      8653
      8659      8660      8659      8661      8659      8662      8653      8654
      8654      8656      8654      8655      8656      8657      8656      8658
      8656      8668      8668      8669      8668      8670      8668      8671
      8671      8672      8671      8673      8671      8674      8674      8675
      8674      8676      8676      8677      8676      8678      8678      8679
      8678      8680      8678      8681      8681      8682      8681      8683
      8683      8684      8683      8685      8685      8686      8685      8687
      8685      8688      8688      8689      8688      8690      8690      8691
      8690      8692      8692      8693      8692      8694      8692      8695
      8695      8696      8695      8697      8697      8698      8697      8699
      8699      8700      8699      8701      8699      8702      8702      8703
      8702      8704      8702      8705      8705      8706      8705      8707
      8705      8708      8708      8709      8708      8710      8708      8711
      8711      8712      8711      8713      8711      8714      8662      8663
      8663      8665      8663      8664      8665      8666      8665      8667
      8665      8715      8715      8716      8715      8717      8715      8718
      8718      8719      8718      8720      8718      8721      8721      8722
      8721      8723      8721      8724      8724      8725      8724      8726
      8724      8727      8727      8728      8727      8729      8727      8730
      8730      8731      8730      8732      8730      8733      8733      8734
      8733      8735      8733      8736      8736      8737      8736      8738
      8736      8739      8739      8740      8739      8741      8739      8742
      8742      8743      8742      8744      8742      8745      8745      8746
      8745      8747      8745      8748      8748      8749      8748      8750
      8748      8751      8751      8752      8751      8753      8751      8754
      8754      8755      8754      8756      8754      8757      8757      8758
      8757      8759      8757      8760      8760      8761      8760      8762
      8760      8763      8764      8768      8764      8772      8764      8776
      8768      8769      8768      8770      8768      8771      8772      8773
      8772      8774      8772      8775      8776      8777      8776      8778
      8776      8779      8764      8765      8765      8766      8765      8767
      8765      8780      8780      8781      8780      8782      8780      8786
      8787      8788      8786      8783      8783      8787      8783      8784
      8783      8785      8788      8789      8788      8790      8788      8791
      8791      8792      8791      8799      8791      8793      8799      8800
      8799      8801      8799      8802      8793      8794      8794      8796
      8794      8795      8796      8797      8796      8798      8796      8808
      8808      8809      8808      8810      8808      8811      8811      8812
      8811      8813      8811      8814      8814      8815      8814      8816
      8814      8817      8817      8818      8817      8819      8817      8820
      8820      8821      8820      8822      8820      8823      8823      8824
      8823      8825      8823      8826      8826      8827      8826      8828
      8828      8829      8828      8830      8830      8831      8830      8832
      8830      8833      8833      8834      8833      8835      8833      8836
      8836      8837      8836      8838      8836      8839      8839      8840
      8839      8841      8839      8842      8842      8843      8842      8844
      8842      8845      8845      8846      8845      8847      8845      8848
      8848      8849      8848      8850      8848      8851      8851      8852
      8851      8853      8851      8854      8802      8803      8803      8805
      8803      8804      8805      8806      8805      8807      8805      8855
      8855      8856      8855      8857      8855      8858      8858      8859
      8858      8860      8858      8861      8861      8862      8861      8863
      8861      8864      8864      8865      8864      8866      8864      8867
      8867      8868      8867      8869      8867      8870      8870      8871
      8870      8872      8870      8873      8873      8874      8873      8875
      8873      8876      8876      8877      8876      8878      8876      8879
      8879      8880      8879      8881      8879      8882      8882      8883
      8882      8884      8882      8885      8885      8886      8885      8887
      8885      8888      8888      8889      8888      8890      8888      8891
      8891      8892      8891      8893      8891      8894      8894      8895
      8894      8896      8894      8897      8973      8974      8973      8975
      8973      8976      8973      8970      8970      8971      8970      8972
      8970      8967      8967      8968      8967      8969      8967      8964
      8964      8965      8964      8966      8964      8961      8961      8962
      8961      8963      8961      8958      8958      8959      8958      8960
      8958      8955      8955      8956      8955      8957      8955      8952
      8952      8953      8952      8954      8952      8949      8949      8950
      8949      8951      8949      8946      8946      8947      8946      8948
      8946      8943      8943      8944      8943      8945      8943      8940
      8940      8941      8940      8942      8940      8937      8937      8938
      8937      8939      8937      8935      8935      8936      8933      8934
      8933      8929      8929      8930      8929      8931      8931      8932
      8929      8927      8927      8928      8927      8922      8922      8923
      8922      8924      8922      8920      8920      8917      8921      8917
      8918      8917      8919      8917      8921      8914      8914      8915
      8914      8916      8914      8911      8911      8912      8911      8913
      8911      8898      8898      8907      8898      8903      8898      8899
      8907      8908      8907      8909      8907      8910      8903      8904
      8903      8905      8903      8906      8899      8900      8899      8901
      8899      8902      8927      8925      8925      8926      8925      8977
      8977      8979      8979      8980      8979      8981      8979      8982
      8982      8983      8982      8984      8982      8985      8985      8986
      8985      8987      8985      8988      8988      8989      8988      8990
      8988      8991      8991      8992      8991      8993      8991      8994
      8994      8995      8994      8996      8994      8997      8997      8998
      8997      8999      8997      9000      9000      9001      9002      9003
      9002      9004      9004      9005      9004      9006      9004      9007
      9007      9008      9007      9009      9007      9010      9010      9011
      9010      9012      9010      9013      9013      9014      9013      9015
      9013      9016      9016      9017      9016      9018      9016      9019
      9019      9020      9019      9021      9019      9022      9022      9023
      9022      9024      9022      9025      9025      9026      9025      9027
      9025      9028      8933      8935      9000      9002      8977      8978
      9029      9030      9029      9031      9029      9032      9029      9033
      9033      9034      9033      9035      9033      9036      9036      9037
      9036      9038      9036      9042      9044      9043      9042      9039
      9039      9043      9039      9040      9039      9041      9044      9045
      9044      9046      9044      9047      9047      9048      9047      9055
      9047      9049      9055      9056      9055      9057      9055      9058
      9049      9050      9050      9052      9050      9051      9052      9053
      9052      9054      9052      9064      9064      9065      9064      9066
      9064      9067      9067      9068      9067      9069      9067      9070
      9070      9071      9070      9072      9072      9073      9072      9074
      9074      9075      9074      9076      9074      9077      9077      9078
      9077      9079      9079      9080      9079      9081      9081      9082
      9081      9083      9081      9084      9084      9085      9084      9086
      9086      9087      9086      9088      9088      9089      9088      9090
      9088      9091      9091      9092      9091      9093      9093      9094
      9093      9095      9095      9096      9095      9097      9095      9098
      9098      9099      9098      9100      9098      9101      9101      9102
      9101      9103      9101      9104      9104      9105      9104      9106
      9104      9107      9107      9108      9107      9109      9107      9110
      9058      9059      9059      9061      9059      9060      9061      9062
      9061      9063      9061      9111      9111      9112      9111      9113
      9111      9114      9114      9115      9114      9116      9114      9117
      9117      9118      9117      9119      9117      9120      9120      9121
      9120      9122      9120      9123      9123      9124      9123      9125
      9123      9126      9126      9127      9126      9128      9126      9129
      9129      9130      9129      9131      9129      9132      9132      9133
      9132      9134      9132      9135      9135      9136      9135      9137
      9135      9138      9138      9139      9138      9140      9138      9141
      9141      9142      9141      9143      9141      9144      9144      9145
      9144      9146      9144      9147      9147      9148      9147      9149
      9147      9150      9150      9151      9150      9152      9150      9153
      9153      9154      9153      9155      9153      9156      9156      9157
      9156      9158      9156      9159      9160      9162      9160      9161
      9162      9163      9160      9206      9206      9207      9206      9208
      9206      9203      9203      9204      9203      9205      9160      9164
      9164      9165      9164      9166      9164      9167      9167      9198
      9198      9203      9198      9199      9199      9200      9199      9201
      9199      9202      9167      9168      9168      9169      9168      9170
      9170      9171      9170      9172      9170      9173      9173      9174
      9173      9196      9196      9197      9196      9198      9173      9175
      9175      9176      9175      9185      9185      9190      9190      9191
      9190      9192      9190      9193      9193      9194      9193      9195
      9193      9196      9185      9186      9186      9187      9186      9188
      9186      9189      9175      9177      9177      9178      9177      9179
      9177      9180      9180      9181      9180      9182      9180      9183
      9183      9184      9183      9185      9183      9209      9209      9210
      9209      9211      9211      9212      9211      9213      9211      9214
      9209      9215      9215      9216      9215      9217      9215      9218
      9218      9219      9218      9220      9218      9221      9221      9222
      9221      9223      9221      9224      9224      9225      9224      9226
      9226      9227      9226      9228      9226      9229      9224      9230
      9230      9231      9230      9232      9230      9233      9234      9236
      9234      9235      9236      9237      9234      9280      9280      9281
      9280      9282      9280      9277      9277      9278      9277      9279
      9234      9238      9238      9239      9238      9240      9238      9241
      9241      9272      9272      9277      9272      9273      9273      9274
      9273      9275      9273      9276      9241      9242      9242      9243
      9242      9244      9244      9245      9244      9246      9244      9247
      9247      9248      9247      9270      9270      9271      9270      9272
      9247      9249      9249      9250      9249      9259      9259      9264
      9264      9265      9264      9266      9264      9267      9267      9268
      9267      9269      9267      9270      9259      9260      9260      9261
      9260      9262      9260      9263      9249      9251      9251      9252
      9251      9253      9251      9254      9254      9255      9254      9256
      9254      9257      9257      9258      9257      9259      9257      9283
      9283      9284      9283      9285      9285      9286      9285      9287
      9285      9288      9283      9289      9289      9290      9289      9291
      9289      9292      9292      9293      9292      9294      9292      9295
      9295      9296      9295      9297      9295      9298      9298      9299
      9298      9300      9300      9301      9300      9302      9300      9303
      9298      9304      9304      9305      9304      9306      9304      9307
      9328      9329      9328      9324      9328      9308      9328      9333
      9308      9309      9308      9310      9310      9311      9308      9312
      9312      9313      9312      9314      9314      9315      9312      9316
      9316      9317      9316      9318      9318      9319      9316      9320
      9320      9321      9320      9324      9324      9325      9324      9326
      9326      9327      9320      9322      9322      9323      9333      9330
      9330      9334      9330      9331      9330      9332      9334      9335
      9335      9336      9335      9337      9335      9338      9338      9339
      9338      9346      9338      9340      9346      9347      9346      9348
      9346      9349      9340      9341      9341      9343      9341      9342
      9343      9344      9343      9345      9343      9355      9355      9356
      9355      9357      9355      9358      9358      9359      9358      9360
      9358      9361      9361      9362      9361      9363      9363      9364
      9363      9365      9365      9366      9365      9367      9365      9368
      9368      9369      9368      9370      9370      9371      9370      9372
      9372      9373      9372      9374      9372      9375      9375      9376
      9375      9377      9377      9378      9377      9379      9379      9380
      9379      9381      9379      9382      9382      9383      9382      9384
      9384      9385      9384      9386      9386      9387      9386      9388
      9386      9389      9389      9390      9389      9391      9389      9392
      9392      9393      9392      9394      9392      9395      9395      9396
      9395      9397      9395      9398      9398      9399      9398      9400
      9398      9401      9349      9350      9350      9352      9350      9351
      9352      9353      9352      9354      9352      9402      9402      9403
      9402      9404      9402      9405      9405      9406      9405      9407
      9405      9408      9408      9409      9408      9410      9408      9411
      9411      9412      9411      9413      9411      9414      9414      9415
      9414      9416      9414      9417      9417      9418      9417      9419
      9417      9420      9420      9421      9420      9422      9420      9423
      9423      9424      9423      9425      9423      9426      9426      9427
      9426      9428      9426      9429      9429      9430      9429      9431
      9429      9432      9432      9433      9432      9434      9432      9435
      9435      9436      9435      9437      9435      9438      9438      9439
      9438      9440      9438      9441      9441      9442      9441      9443
      9441      9444      9444      9445      9444      9446      9444      9447
      9447      9448      9447      9449      9447      9450      9451      9453
      9451      9452      9453      9454      9451      9497      9497      9498
      9497      9499      9497      9494      9494      9495      9494      9496
      9451      9455      9455      9456      9455      9457      9455      9458
      9458      9489      9489      9494      9489      9490      9490      9491
      9490      9492      9490      9493      9458      9459      9459      9460
      9459      9461      9461      9462      9461      9463      9461      9464
      9464      9465      9464      9487      9487      9488      9487      9489
      9464      9466      9466      9467      9466      9476      9476      9481
      9481      9482      9481      9483      9481      9484      9484      9485
      9484      9486      9484      9487      9476      9477      9477      9478
      9477      9479      9477      9480      9466      9468      9468      9469
      9468      9470      9468      9471      9471      9472      9471      9473
      9471      9474      9474      9475      9474      9476      9474      9500
      9500      9501      9500      9502      9502      9503      9502      9504
      9502      9505      9500      9506      9506      9507      9506      9508
      9506      9509      9509      9510      9509      9511      9509      9512
      9512      9513      9512      9514      9512      9515      9515      9516
      9515      9517      9517      9518      9517      9519      9517      9520
      9515      9521      9521      9522      9521      9523      9521      9524
      9525      9526      9525      9527      9525      9528      9525      9529
      9529      9530      9529      9531      9529      9532      9532      9533
      9532      9534      9532      9538      9540      9539      9538      9535
      9535      9539      9535      9536      9535      9537      9540      9541
      9540      9542      9540      9543      9543      9544      9543      9551
      9543      9545      9551      9552      9551      9553      9551      9554
      9545      9546      9546      9548      9546      9547      9548      9549
      9548      9550      9548      9560      9560      9561      9560      9562
      9560      9563      9563      9564      9563      9565      9563      9566
      9566      9567      9566      9568      9566      9569      9569      9570
      9569      9571      9569      9572      9572      9573      9572      9574
      9572      9575      9575      9576      9575      9577      9575      9578
      9578      9579      9578      9580      9580      9581      9580      9582
      9582      9583      9582      9584      9582      9585      9585      9586
      9585      9587      9585      9588      9588      9589      9588      9590
      9588      9591      9591      9592      9591      9593      9591      9594
      9594      9595      9594      9596      9594      9597      9597      9598
      9597      9599      9597      9600      9600      9601      9600      9602
      9600      9603      9603      9604      9603      9605      9603      9606
      9554      9555      9555      9557      9555      9556      9557      9558
      9557      9559      9557      9607      9607      9608      9607      9609
      9607      9610      9610      9611      9610      9612      9610      9613
      9613      9614      9613      9615      9613      9616      9616      9617
      9616      9618      9616      9619      9619      9620      9619      9621
      9619      9622      9622      9623      9622      9624      9622      9625
      9625      9626      9625      9627      9625      9628      9628      9629
      9628      9630      9628      9631      9631      9632      9631      9633
      9631      9634      9634      9635      9634      9636      9634      9637
      9637      9638      9637      9639      9637      9640      9640      9641
      9640      9642      9640      9643      9643      9644      9643      9645
      9643      9646      9646      9647      9646      9648      9646      9649
      9649      9650      9649      9651      9649      9652      9652      9653
      9652      9654      9652      9655      9731      9732      9731      9733
      9731      9734      9731      9728      9728      9729      9728      9730
      9728      9725      9725      9726      9725      9727      9725      9722
      9722      9723      9722      9724      9722      9719      9719      9720
      9719      9721      9719      9716      9716      9717      9716      9718
      9716      9713      9713      9714      9713      9715      9713      9710
      9710      9711      9710      9712      9710      9707      9707      9708
      9707      9709      9707      9704      9704      9705      9704      9706
      9704      9701      9701      9702      9701      9703      9701      9698
      9698      9699      9698      9700      9698      9695      9695      9696
      9695      9697      9695      9693      9693      9694      9691      9692
      9691      9687      9687      9688      9687      9689      9689      9690
      9687      9685      9685      9686      9685      9680      9680      9681
      9680      9682      9680      9678      9678      9675      9679      9675
      9676      9675      9677      9675      9679      9672      9672      9673
      9672      9674      9672      9669      9669      9670      9669      9671
      9669      9656      9656      9665      9656      9661      9656      9657
      9665      9666      9665      9667      9665      9668      9661      9662
      9661      9663      9661      9664      9657      9658      9657      9659
      9657      9660      9685      9683      9683      9684      9683      9735
      9735      9737      9737      9738      9737      9739      9737      9740
      9740      9741      9740      9742      9740      9743      9743      9744
      9743      9745      9743      9746      9746      9747      9746      9748
      9746      9749      9749      9750      9749      9751      9749      9752
      9752      9753      9752      9754      9752      9755      9755      9756
      9755      9757      9755      9758      9758      9759      9760      9761
      9760      9762      9762      9763      9762      9764      9762      9765
      9765      9766      9765      9767      9765      9768      9768      9769
      9768      9770      9768      9771      9771      9772      9771      9773
      9771      9774      9774      9775      9774      9776      9774      9777
      9777      9778      9777      9779      9777      9780      9780      9781
      9780      9782      9780      9783      9783      9784      9783      9785
      9783      9786      9691      9693      9758      9760      9735      9736
      9787      9788      9787      9789      9787      9790      9787      9791
      9795      9793      9793      9791      9793      9794      9791      9792
      9791      9796      9804      9803      9796      9797      9796      9798
      9796      9802      9802      9799      9799      9803      9799      9800
      9799      9801      9804      9805      9804      9806      9804      9807
      9807      9808      9807      9815      9807      9809      9815      9816
      9815      9817      9815      9818      9809      9810      9810      9812
      9810      9811      9812      9813      9812      9814      9812      9824
      9824      9825      9824      9826      9824      9827      9827      9828
      9827      9829      9827      9830      9830      9831      9830      9832
      9832      9833      9832      9834      9834      9835      9834      9836
      9834      9837      9837      9838      9837      9839      9839      9840
      9839      9841      9841      9842      9841      9843      9841      9844
      9844      9845      9844      9846      9846      9847      9846      9848
      9848      9849      9848      9850      9848      9851      9851      9852
      9851      9853      9853      9854      9853      9855      9855      9856
      9855      9857      9855      9858      9858      9859      9858      9860
      9858      9861      9861      9862      9861      9863      9861      9864
      9864      9865      9864      9866      9864      9867      9867      9868
      9867      9869      9867      9870      9818      9819      9819      9821
      9819      9820      9821      9822      9821      9823      9821      9871
      9871      9872      9871      9873      9871      9874      9874      9875
      9874      9876      9874      9877      9877      9878      9877      9879
      9877      9880      9880      9881      9880      9882      9880      9883
      9883      9884      9883      9885      9883      9886      9886      9887
      9886      9888      9886      9889      9889      9890      9889      9891
      9889      9892      9892      9893      9892      9894      9892      9895
      9895      9896      9895      9897      9895      9898      9898      9899
      9898      9900      9898      9901      9901      9902      9901      9903
      9901      9904      9904      9905      9904      9906      9904      9907
      9907      9908      9907      9909      9907      9910      9910      9911
      9910      9912      9910      9913      9913      9914      9913      9915
      9913      9916      9916      9917      9916      9918      9916      9919
      9920      9922      9920      9921      9922      9923      9920      9966
      9966      9967      9966      9968      9966      9963      9963      9964
      9963      9965      9920      9924      9924      9925      9924      9926
      9924      9927      9927      9958      9958      9963      9958      9959
      9959      9960      9959      9961      9959      9962      9927      9928
      9928      9929      9928      9930      9930      9931      9930      9932
      9930      9933      9933      9934      9933      9956      9956      9957
      9956      9958      9933      9935      9935      9936      9935      9945
      9945      9950      9950      9951      9950      9952      9950      9953
      9953      9954      9953      9955      9953      9956      9945      9946
      9946      9947      9946      9948      9946      9949      9935      9937
      9937      9938      9937      9939      9937      9940      9940      9941
      9940      9942      9940      9943      9943      9944      9943      9945
      9943      9969      9969      9970      9969      9971      9971      9972
      9971      9973      9971      9974      9969      9975      9975      9976
      9975      9977      9975      9978      9978      9979      9978      9980
      9978      9981      9981      9982      9981      9983      9981      9984
      9984      9985      9984      9986      9986      9987      9986      9988
      9986      9989      9984      9990      9990      9991      9990      9992
      9990      9993      9994      9995      9994      9996      9994      9997
      9994      9998      9998      9999      9998     10000      9998     10001
     10001     10002     10001     10003     10001     10007     10009     10008
     10007     10004     10004     10008     10004     10005     10004     10006
     10009     10010     10009     10011     10009     10012     10012     10013
     10012     10020     10012     10014     10020     10021     10020     10022
     10020     10023     10014     10015     10015     10017     10015     10016
     10017     10018     10017     10019     10017     10029     10029     10030
     10029     10031     10029     10032     10032     10033     10032     10034
     10032     10035     10035     10036     10035     10037     10037     10038
     10037     10039     10039     10040     10039     10041     10039     10042
     10042     10043     10042     10044     10044     10045     10044     10046
     10046     10047     10046     10048     10046     10049     10049     10050
     10049     10051     10051     10052     10051     10053     10053     10054
     10053     10055     10053     10056     10056     10057     10056     10058
     10058     10059     10058     10060     10060     10061     10060     10062
     10060     10063     10063     10064     10063     10065     10063     10066
     10066     10067     10066     10068     10066     10069     10069     10070
     10069     10071     10069     10072     10072     10073     10072     10074
     10072     10075     10023     10024     10024     10026     10024     10025
     10026     10027     10026     10028     10026     10076     10076     10077
     10076     10078     10076     10079     10079     10080     10079     10081
     10079     10082     10082     10083     10082     10084     10082     10085
     10085     10086     10085     10087     10085     10088     10088     10089
     10088     10090     10088     10091     10091     10092     10091     10093
     10091     10094     10094     10095     10094     10096     10094     10097
     10097     10098     10097     10099     10097     10100     10100     10101
     10100     10102     10100     10103     10103     10104     10103     10105
     10103     10106     10106     10107     10106     10108     10106     10109
     10109     10110     10109     10111     10109     10112     10112     10113
     10112     10114     10112     10115     10115     10116     10115     10117
     10115     10118     10118     10119     10118     10120     10118     10121
     10121     10122     10121     10123     10121     10124     10125     10127
     10125     10126     10127     10128     10125     10171     10171     10172
     10171     10173     10171     10168     10168     10169     10168     10170
     10125     10129     10129     10130     10129     10131     10129     10132
     10132     10163     10163     10168     10163     10164     10164     10165
     10164     10166     10164     10167     10132     10133     10133     10134
     10133     10135     10135     10136     10135     10137     10135     10138
     10138     10139     10138     10161     10161     10162     10161     10163
     10138     10140     10140     10141     10140     10150     10150     10155
     10155     10156     10155     10157     10155     10158     10158     10159
     10158     10160     10158     10161     10150     10151     10151     10152
     10151     10153     10151     10154     10140     10142     10142     10143
     10142     10144     10142     10145     10145     10146     10145     10147
     10145     10148     10148     10149     10148     10150     10148     10174
     10174     10175     10174     10176     10176     10177     10176     10178
     10176     10179     10174     10180     10180     10181     10180     10182
     10180     10183     10183     10184     10183     10185     10183     10186
     10186     10187     10186     10188     10186     10189     10189     10190
     10189     10191     10191     10192     10191     10193     10191     10194
     10189     10195     10195     10196     10195     10197     10195     10198
     10199     10200     10199     10204     10199     10208     10200     10201
     10200     10202     10200     10203     10204     10205     10204     10206
     10204     10207     10208     10209     10208     10210     10208     10211
     10199     10212     10212     10213     10212     10214     10212     10215
     10215     10216     10215     10217     10215     10221     10222     10223
     10221     10218     10218     10222     10218     10219     10218     10220
     10223     10224     10223     10225     10223     10226     10226     10227
     10226     10234     10226     10228     10234     10235     10234     10236
     10234     10237     10228     10229     10229     10231     10229     10230
     10231     10232     10231     10233     10231     10243     10243     10244
     10243     10245     10243     10246     10246     10247     10246     10248
     10246     10249     10249     10250     10249     10251     10249     10252
     10252     10253     10252     10254     10252     10255     10255     10256
     10255     10257     10255     10258     10258     10259     10258     10260
     10258     10261     10261     10262     10261     10263     10263     10264
     10263     10265     10265     10266     10265     10267     10265     10268
     10268     10269     10268     10270     10270     10271     10270     10272
     10272     10273     10272     10274     10272     10275     10275     10276
     10275     10277     10275     10278     10278     10279     10278     10280
     10278     10281     10281     10282     10281     10283     10281     10284
     10284     10285     10284     10286     10284     10287     10237     10238
     10238     10240     10238     10239     10240     10241     10240     10242
     10240     10288     10288     10289     10288     10290     10288     10291
     10291     10292     10291     10293     10291     10294     10294     10295
     10294     10296     10294     10297     10297     10298     10297     10299
     10297     10300     10300     10301     10300     10302     10300     10303
     10303     10304     10303     10305     10303     10306     10306     10307
     10306     10308     10306     10309     10309     10310     10309     10311
     10309     10312     10312     10313     10312     10314     10312     10315
     10315     10316     10315     10317     10315     10318     10318     10319
     10318     10320     10318     10321     10321     10322     10321     10323
     10321     10324     10324     10325     10324     10326     10324     10327
     10327     10328     10327     10329     10327     10330     10330     10331
     10330     10332     10330     10333     10333     10334     10333     10335
     10333     10336     10337     10341     10337     10345     10337     10349
     10341     10342     10341     10343     10341     10344     10345     10346
     10345     10347     10345     10348     10349     10350     10349     10351
     10349     10352     10337     10338     10338     10339     10338     10340
     10338     10353     10353     10354     10353     10355     10353     10359
     10360     10361     10359     10356     10356     10360     10356     10357
     10356     10358     10361     10362     10361     10363     10361     10364
     10364     10365     10364     10372     10364     10366     10372     10373
     10372     10374     10372     10375     10366     10367     10367     10369
     10367     10368     10369     10370     10369     10371     10369     10381
     10381     10382     10381     10383     10381     10384     10384     10385
     10384     10386     10384     10387     10387     10388     10387     10389
     10389     10390     10389     10391     10391     10392     10391     10393
     10391     10394     10394     10395     10394     10396     10396     10397
     10396     10398     10398     10399     10398     10400     10398     10401
     10401     10402     10401     10403     10403     10404     10403     10405
     10405     10406     10405     10407     10405     10408     10408     10409
     10408     10410     10410     10411     10410     10412     10412     10413
     10412     10414     10412     10415     10415     10416     10415     10417
     10415     10418     10418     10419     10418     10420     10418     10421
     10421     10422     10421     10423     10421     10424     10424     10425
     10424     10426     10424     10427     10375     10376     10376     10378
     10376     10377     10378     10379     10378     10380     10378     10428
     10428     10429     10428     10430     10428     10431     10431     10432
     10431     10433     10431     10434     10434     10435     10434     10436
     10434     10437     10437     10438     10437     10439     10437     10440
     10440     10441     10440     10442     10440     10443     10443     10444
     10443     10445     10443     10446     10446     10447     10446     10448
     10446     10449     10449     10450     10449     10451     10449     10452
     10452     10453     10452     10454     10452     10455     10455     10456
     10455     10457     10455     10458     10458     10459     10458     10460
     10458     10461     10461     10462     10461     10463     10461     10464
     10464     10465     10464     10466     10464     10467     10467     10468
     10467     10469     10467     10470     10470     10471     10470     10472
     10470     10473     10473     10474     10473     10475     10473     10476
     10477     10479     10477     10478     10479     10480     10477     10523
     10523     10524     10523     10525     10523     10520     10520     10521
     10520     10522     10477     10481     10481     10482     10481     10483
     10481     10484     10484     10515     10515     10520     10515     10516
     10516     10517     10516     10518     10516     10519     10484     10485
     10485     10486     10485     10487     10487     10488     10487     10489
     10487     10490     10490     10491     10490     10513     10513     10514
     10513     10515     10490     10492     10492     10493     10492     10502
     10502     10507     10507     10508     10507     10509     10507     10510
     10510     10511     10510     10512     10510     10513     10502     10503
     10503     10504     10503     10505     10503     10506     10492     10494
     10494     10495     10494     10496     10494     10497     10497     10498
     10497     10499     10497     10500     10500     10501     10500     10502
     10500     10526     10526     10527     10526     10528     10528     10529
     10528     10530     10528     10531     10526     10532     10532     10533
     10532     10534     10532     10535     10535     10536     10535     10537
     10535     10538     10538     10539     10538     10540     10538     10541
     10541     10542     10541     10543     10543     10544     10543     10545
     10543     10546     10541     10547     10547     10548     10547     10549
     10547     10550     10551     10552     10551     10553     10551     10554
     10551     10555     10555     10556     10555     10557     10555     10558
     10558     10559     10558     10560     10558     10564     10566     10565
     10564     10561     10561     10565     10561     10562     10561     10563
     10566     10567     10566     10568     10566     10569     10569     10570
     10569     10577     10569     10571     10577     10578     10577     10579
     10577     10580     10571     10572     10572     10574     10572     10573
     10574     10575     10574     10576     10574     10586     10586     10587
     10586     10588     10586     10589     10589     10590     10589     10591
     10589     10592     10592     10593     10592     10594     10594     10595
     10594     10596     10596     10597     10596     10598     10596     10599
     10599     10600     10599     10601     10601     10602     10601     10603
     10603     10604     10603     10605     10603     10606     10606     10607
     10606     10608     10608     10609     10608     10610     10610     10611
     10610     10612     10610     10613     10613     10614     10613     10615
     10615     10616     10615     10617     10617     10618     10617     10619
     10617     10620     10620     10621     10620     10622     10620     10623
     10623     10624     10623     10625     10623     10626     10626     10627
     10626     10628     10626     10629     10629     10630     10629     10631
     10629     10632     10580     10581     10581     10583     10581     10582
     10583     10584     10583     10585     10583     10633     10633     10634
     10633     10635     10633     10636     10636     10637     10636     10638
     10636     10639     10639     10640     10639     10641     10639     10642
     10642     10643     10642     10644     10642     10645     10645     10646
     10645     10647     10645     10648     10648     10649     10648     10650
     10648     10651     10651     10652     10651     10653     10651     10654
     10654     10655     10654     10656     10654     10657     10657     10658
     10657     10659     10657     10660     10660     10661     10660     10662
     10660     10663     10663     10664     10663     10665     10663     10666
     10666     10667     10666     10668     10666     10669     10669     10670
     10669     10671     10669     10672     10672     10673     10672     10674
     10672     10675     10675     10676     10675     10677     10675     10678
     10678     10679     10678     10680     10678     10681     10682     10684
     10682     10683     10684     10685     10682     10728     10728     10729
     10728     10730     10728     10725     10725     10726     10725     10727
     10682     10686     10686     10687     10686     10688     10686     10689
     10689     10720     10720     10725     10720     10721     10721     10722
     10721     10723     10721     10724     10689     10690     10690     10691
     10690     10692     10692     10693     10692     10694     10692     10695
     10695     10696     10695     10718     10718     10719     10718     10720
     10695     10697     10697     10698     10697     10707     10707     10712
     10712     10713     10712     10714     10712     10715     10715     10716
     10715     10717     10715     10718     10707     10708     10708     10709
     10708     10710     10708     10711     10697     10699     10699     10700
     10699     10701     10699     10702     10702     10703     10702     10704
     10702     10705     10705     10706     10705     10707     10705     10731
     10731     10732     10731     10733     10733     10734     10733     10735
     10733     10736     10731     10737     10737     10738     10737     10739
     10737     10740     10740     10741     10740     10742     10740     10743
     10743     10744     10743     10745     10743     10746     10746     10747
     10746     10748     10748     10749     10748     10750     10748     10751
     10746     10752     10752     10753     10752     10754     10752     10755
     10756     10760     10756     10764     10756     10768     10760     10761
     10760     10762     10760     10763     10764     10765     10764     10766
     10764     10767     10768     10769     10768     10770     10768     10771
     10756     10757     10757     10758     10757     10759     10757     10772
     10772     10773     10772     10774     10772     10778     10779     10780
     10778     10775     10775     10779     10775     10776     10775     10777
     10780     10781     10780     10782     10780     10783     10783     10784
     10783     10791     10783     10785     10791     10792     10791     10793
     10791     10794     10785     10786     10786     10788     10786     10787
     10788     10789     10788     10790     10788     10800     10800     10801
     10800     10802     10800     10803     10803     10804     10803     10805
     10803     10806     10806     10807     10806     10808     10806     10809
     10809     10810     10809     10811     10809     10812     10812     10813
     10812     10814     10812     10815     10815     10816     10815     10817
     10815     10818     10818     10819     10818     10820     10820     10821
     10820     10822     10822     10823     10822     10824     10822     10825
     10825     10826     10825     10827     10825     10828     10828     10829
     10828     10830     10828     10831     10831     10832     10831     10833
     10831     10834     10834     10835     10834     10836     10834     10837
     10837     10838     10837     10839     10837     10840     10840     10841
     10840     10842     10840     10843     10843     10844     10843     10845
     10843     10846     10794     10795     10795     10797     10795     10796
     10797     10798     10797     10799     10797     10847     10847     10848
     10847     10849     10847     10850     10850     10851     10850     10852
     10850     10853     10853     10854     10853     10855     10853     10856
     10856     10857     10856     10858     10856     10859     10859     10860
     10859     10861     10859     10862     10862     10863     10862     10864
     10862     10865     10865     10866     10865     10867     10865     10868
     10868     10869     10868     10870     10868     10871     10871     10872
     10871     10873     10871     10874     10874     10875     10874     10876
     10874     10877     10877     10878     10877     10879     10877     10880
     10880     10881     10880     10882     10880     10883     10883     10884
     10883     10885     10883     10886     10886     10887     10886     10888
     10886     10889     10890     10891     10890     10892     10890     10893
     10890     10894     10898     10896     10896     10894     10896     10897
     10894     10895     10894     10899     10907     10906     10899     10900
     10899     10901     10899     10905     10905     10902     10902     10906
     10902     10903     10902     10904     10907     10908     10907     10909
     10907     10910     10910     10911     10910     10918     10910     10912
     10918     10919     10918     10920     10918     10921     10912     10913
     10913     10915     10913     10914     10915     10916     10915     10917
     10915     10927     10927     10928     10927     10929     10927     10930
     10930     10931     10930     10932     10930     10933     10933     10934
     10933     10935     10935     10936     10935     10937     10937     10938
     10937     10939     10937     10940     10940     10941     10940     10942
     10942     10943     10942     10944     10944     10945     10944     10946
     10944     10947     10947     10948     10947     10949     10949     10950
     10949     10951     10951     10952     10951     10953     10951     10954
     10954     10955     10954     10956     10956     10957     10956     10958
     10958     10959     10958     10960     10958     10961     10961     10962
     10961     10963     10961     10964     10964     10965     10964     10966
     10964     10967     10967     10968     10967     10969     10967     10970
     10970     10971     10970     10972     10970     10973     10921     10922
     10922     10924     10922     10923     10924     10925     10924     10926
     10924     10974     10974     10975     10974     10976     10974     10977
     10977     10978     10977     10979     10977     10980     10980     10981
     10980     10982     10980     10983     10983     10984     10983     10985
     10983     10986     10986     10987     10986     10988     10986     10989
     10989     10990     10989     10991     10989     10992     10992     10993
     10992     10994     10992     10995     10995     10996     10995     10997
     10995     10998     10998     10999     10998     11000     10998     11001
     11001     11002     11001     11003     11001     11004     11004     11005
     11004     11006     11004     11007     11007     11008     11007     11009
     11007     11010     11010     11011     11010     11012     11010     11013
     11013     11014     11013     11015     11013     11016     11016     11017
     11016     11018     11016     11019     11019     11020     11019     11021
     11019     11022     11023     11024     11023     11028     11023     11032
     11024     11025     11024     11026     11024     11027     11028     11029
     11028     11030     11028     11031     11032     11033     11032     11034
     11032     11035     11023     11036     11036     11037     11036     11038
     11036     11039     11039     11040     11039     11041     11039     11045
     11046     11047     11045     11042     11042     11046     11042     11043
     11042     11044     11047     11048     11047     11049     11047     11050
     11050     11051     11050     11058     11050     11052     11058     11059
     11058     11060     11058     11061     11052     11053     11053     11055
     11053     11054     11055     11056     11055     11057     11055     11067
     11067     11068     11067     11069     11067     11070     11070     11071
     11070     11072     11070     11073     11073     11074     11073     11075
     11073     11076     11076     11077     11076     11078     11076     11079
     11079     11080     11079     11081     11079     11082     11082     11083
     11082     11084     11082     11085     11085     11086     11085     11087
     11087     11088     11087     11089     11089     11090     11089     11091
     11089     11092     11092     11093     11092     11094     11094     11095
     11094     11096     11096     11097     11096     11098     11096     11099
     11099     11100     11099     11101     11099     11102     11102     11103
     11102     11104     11102     11105     11105     11106     11105     11107
     11105     11108     11108     11109     11108     11110     11108     11111
     11061     11062     11062     11064     11062     11063     11064     11065
     11064     11066     11064     11112     11112     11113     11112     11114
     11112     11115     11115     11116     11115     11117     11115     11118
     11118     11119     11118     11120     11118     11121     11121     11122
     11121     11123     11121     11124     11124     11125     11124     11126
     11124     11127     11127     11128     11127     11129     11127     11130
     11130     11131     11130     11132     11130     11133     11133     11134
     11133     11135     11133     11136     11136     11137     11136     11138
     11136     11139     11139     11140     11139     11141     11139     11142
     11142     11143     11142     11144     11142     11145     11145     11146
     11145     11147     11145     11148     11148     11149     11148     11150
     11148     11151     11151     11152     11151     11153     11151     11154
     11154     11155     11154     11156     11154     11157     11157     11158
     11157     11159     11157     11160     11161     11162     11161     11163
     11162     11163     11164     11165     11164     11166     11165     11166
     11167     11168     11167     11169     11168     11169     11170     11171
     11170     11172     11171     11172     11173     11174     11173     11175
     11174     11175     11176     11177     11176     11178     11177     11178
     11179     11180     11179     11181     11180     11181     11182     11183
     11182     11184     11183     11184     11185     11186     11185     11187
     11186     11187     11188     11189     11188     11190     11189     11190
     11191     11192     11191     11193     11192     11193     11194     11195
     11194     11196     11195     11196     11197     11198     11197     11199
     11198     11199     11200     11201     11200     11202     11201     11202
     11203     11204     11203     11205     11204     11205     11206     11207
     11206     11208     11207     11208     11209     11210     11209     11211
     11210     11211     11212     11213     11212     11214     11213     11214
     11215     11216     11215     11217     11216     11217     11218     11219
     11218     11220     11219     11220     11221     11222     11221     11223
     11222     11223     11224     11225     11224     11226     11225     11226
     11227     11228     11227     11229     11228     11229     11230     11231
     11230     11232     11231     11232     11233     11234     11233     11235
     11234     11235     11236     11237     11236     11238     11237     11238
     11239     11240     11239     11241     11240     11241     11242     11243
     11242     11244     11243     11244     11245     11246     11245     11247
     11246     11247     11248     11249     11248     11250     11249     11250
     11251     11252     11251     11253     11252     11253     11254     11255
     11254     11256     11255     11256     11257     11258     11257     11259
     11258     11259     11260     11261     11260     11262     11261     11262
     11263     11264     11263     11265     11264     11265     11266     11267
     11266     11268     11267     11268     11269     11270     11269     11271
     11270     11271     11272     11273     11272     11274     11273     11274
     11275     11276     11275     11277     11276     11277     11278     11279
     11278     11280     11279     11280     11281     11282     11281     11283
     11282     11283     11284     11285     11284     11286     11285     11286
     11287     11288     11287     11289     11288     11289     11290     11291
     11290     11292     11291     11292     11293     11294     11293     11295
     11294     11295     11296     11297     11296     11298     11297     11298

     21566 !NTHETA: angles
         1         2         3         1         2         4         1         2         5
         1         6         7         1         6         8         1         6         9
         1        10        11         1        10        12         1        10        13
         1        14        15         1        14        16         1        14        17
         2         1         6         2         1        10         2         1        14
         3         2         4         3         2         5         4         2         5
         6         1        10         6         1        14         7         6         8
         7         6         9         8         6         9        10         1        14
        11        10        12        11        10        13        12        10        13
        14        17        18        14        17        19        14        17        24
        15        14        16        15        14        17        16        14        17
        17        24        20        18        17        19        18        17        24
        19        17        24        20        23        25        21        20        22
        21        20        23        21        20        24        22        20        23
        22        20        24        23        20        24        23        25        26
        23        25        27        23        25        30        25        30        28
        25        30        31        25        30        32        26        25        27
        26        25        30        27        25        30        28        30        31
        28        30        32        28        80        81        28        80        82
        29        28        30        29        28        80        30        28        80
        30        32        33        30        32        34        30        32        36
        31        30        32        32        34        35        32        36        37
        32        36        38        33        32        34        33        32        36
        34        32        36        36        38        39        36        38        40
        37        36        38        38        40        41        38        40        42
        38        40        43        39        38        40        40        43        44
        40        43        45        40        43        46        41        40        42
        41        40        43        42        40        43        43        46        47
        43        46        48        43        46        49        44        43        45
        44        43        46        45        43        46        46        49        50
        46        49        51        46        49        52        47        46        48
        47        46        49        48        46        49        49        52        53
        49        52        54        49        52        55        50        49        51
        50        49        52        51        49        52        52        55        56
        52        55        57        52        55        58        53        52        54
        53        52        55        54        52        55        55        58        59
        55        58        60        55        58        61        56        55        57
        56        55        58        57        55        58        58        61        62
        58        61        63        58        61        64        59        58        60
        59        58        61        60        58        61        61        64        65
        61        64        66        61        64        67        62        61        63
        62        61        64        63        61        64        64        67        68
        64        67        69        64        67        70        65        64        66
        65        64        67        66        64        67        67        70        71
        67        70        72        67        70        73        68        67        69
        68        67        70        69        67        70        70        73        74
        70        73        75        70        73        76        71        70        72
        71        70        73        72        70        73        73        76        77
        73        76        78        73        76        79        74        73        75
        74        73        76        75        73        76        77        76        78
        77        76        79        78        76        79        80        82        83
        80        82        84        80        82        85        81        80        82
        82        85        86        82        85        87        82        85        88
        83        82        84        83        82        85        84        82        85
        85        88        89        85        88        90        85        88        91
        86        85        87        86        85        88        87        85        88
        88        91        92        88        91        93        88        91        94
        89        88        90        89        88        91        90        88        91
        91        94        95        91        94        96        91        94        97
        92        91        93        92        91        94        93        91        94
        94        97        98        94        97        99        94        97       100
        95        94        96        95        94        97        96        94        97
        97       100       101        97       100       102        97       100       103
        98        97        99        98        97       100        99        97       100
       100       103       104       100       103       105       101       100       102
       101       100       103       102       100       103       103       105       106
       103       105       107       104       103       105       105       107       108
       105       107       109       105       107       110       106       105       107
       107       110       111       107       110       112       107       110       113
       108       107       109       108       107       110       109       107       110
       110       113       114       110       113       115       110       113       116
       111       110       112       111       110       113       112       110       113
       113       116       117       113       116       118       113       116       119
       114       113       115       114       113       116       115       113       116
       116       119       120       116       119       121       116       119       122
       117       116       118       117       116       119       118       116       119
       119       122       123       119       122       124       119       122       125
       120       119       121       120       119       122       121       119       122
       122       125       126       122       125       127       122       125       128
       123       122       124       123       122       125       124       122       125
       125       128       129       125       128       130       125       128       131
       126       125       127       126       125       128       127       125       128
       129       128       130       129       128       131       130       128       131
       132       136       137       132       136       138       132       136       141
       133       132       134       133       132       135       133       132       136
       134       132       135       134       132       136       135       132       136
       136       138       139       136       138       140       136       141       142
       136       141       143       136       141       147       137       136       138
       137       136       141       138       136       141       139       138       140
       141       147       144       142       141       143       142       141       147
       143       141       147       144       148       149       145       144       146
       145       144       147       145       144       148       146       144       147
       146       144       148       147       144       148       148       149       150
       148       149       151       148       149       152       149       152       153
       149       152       154       149       152       160       150       149       151
       150       149       152       151       149       152       152       154       155
       152       160       161       152       160       162       152       160       163
       153       152       154       153       152       160       154       152       160
       154       155       156       154       155       157       155       157       158
       155       157       159       155       157       169       156       155       157
       157       169       170       157       169       171       157       169       172
       158       157       159       158       157       169       159       157       169
       160       163       164       161       160       162       161       160       163
       162       160       163       163       164       165       163       164       166
       164       166       167       164       166       168       164       166       216
       165       164       166       166       216       217       166       216       218
       166       216       219       167       166       168       167       166       216
       168       166       216       169       172       173       169       172       174
       169       172       175       170       169       171       170       169       172
       171       169       172       172       175       176       172       175       177
       173       172       174       173       172       175       174       172       175
       175       177       178       175       177       179       176       175       177
       177       179       180       177       179       181       177       179       182
       178       177       179       179       182       183       179       182       184
       180       179       181       180       179       182       181       179       182
       182       184       185       182       184       186       183       182       184
       184       186       187       184       186       188       184       186       189
       185       184       186       186       189       190       186       189       191
       187       186       188       187       186       189       188       186       189
       189       191       192       189       191       193       190       189       191
       191       193       194       191       193       195       191       193       196
       192       191       193       193       196       197       193       196       198
       194       193       195       194       193       196       195       193       196
       196       198       199       196       198       200       197       196       198
       198       200       201       198       200       202       198       200       203
       199       198       200       200       203       204       200       203       205
       200       203       206       201       200       202       201       200       203
       202       200       203       203       206       207       203       206       208
       203       206       209       204       203       205       204       203       206
       205       203       206       206       209       210       206       209       211
       206       209       212       207       206       208       207       206       209
       208       206       209       209       212       213       209       212       214
       209       212       215       210       209       211       210       209       212
       211       209       212       213       212       214       213       212       215
       214       212       215       216       219       220       216       219       221
       216       219       222       217       216       218       217       216       219
       218       216       219       219       222       223       219       222       224
       219       222       225       220       219       221       220       219       222
       221       219       222       222       225       226       222       225       227
       222       225       228       223       222       224       223       222       225
       224       222       225       225       228       229       225       228       230
       225       228       231       226       225       227       226       225       228
       227       225       228       228       231       232       228       231       233
       228       231       234       229       228       230       229       228       231
       230       228       231       231       234       235       231       234       236
       231       234       237       232       231       233       232       231       234
       233       231       234       234       237       238       234       237       239
       234       237       240       235       234       236       235       234       237
       236       234       237       237       240       241       237       240       242
       237       240       243       238       237       239       238       237       240
       239       237       240       240       243       244       240       243       245
       240       243       246       241       240       242       241       240       243
       242       240       243       243       246       247       243       246       248
       243       246       249       244       243       245       244       243       246
       245       243       246       246       249       250       246       249       251
       246       249       252       247       246       248       247       246       249
       248       246       249       249       252       253       249       252       254
       249       252       255       250       249       251       250       249       252
       251       249       252       252       255       256       252       255       257
       252       255       258       253       252       254       253       252       255
       254       252       255       255       258       259       255       258       260
       255       258       261       256       255       257       256       255       258
       257       255       258       258       261       262       258       261       263
       258       261       264       259       258       260       259       258       261
       260       258       261       262       261       263       262       261       264
       263       261       264       265       269       270       265       269       271
       265       269       272       266       265       267       266       265       268
       266       265       269       267       265       268       267       265       269
       268       265       269       269       272       273       269       272       274
       269       272       278       270       269       271       270       269       272
       271       269       272       272       278       275       273       272       274
       273       272       278       274       272       278       275       279       280
       276       275       277       276       275       278       276       275       279
       277       275       278       277       275       279       278       275       279
       279       280       281       279       280       282       279       280       283
       280       283       284       280       283       285       280       283       291
       281       280       282       281       280       283       282       280       283
       283       285       286       283       291       292       283       291       293
       283       291       294       284       283       285       284       283       291
       285       283       291       285       286       287       285       286       288
       286       288       289       286       288       290       286       288       300
       287       286       288       288       300       301       288       300       302
       288       300       303       289       288       290       289       288       300
       290       288       300       291       294       295       292       291       293
       292       291       294       293       291       294       294       295       296
       294       295       297       295       297       298       295       297       299
       295       297       347       296       295       297       297       347       348
       297       347       349       297       347       350       298       297       299
       298       297       347       299       297       347       300       303       304
       300       303       305       300       303       306       301       300       302
       301       300       303       302       300       303       303       306       307
       303       306       308       304       303       305       304       303       306
       305       303       306       306       308       309       306       308       310
       307       306       308       308       310       311       308       310       312
       308       310       313       309       308       310       310       313       314
       310       313       315       311       310       312       311       310       313
       312       310       313       313       315       316       313       315       317
       314       313       315       315       317       318       315       317       319
       315       317       320       316       315       317       317       320       321
       317       320       322       318       317       319       318       317       320
       319       317       320       320       322       323       320       322       324
       321       320       322       322       324       325       322       324       326
       322       324       327       323       322       324       324       327       328
       324       327       329       325       324       326       325       324       327
       326       324       327       327       329       330       327       329       331
       328       327       329       329       331       332       329       331       333
       329       331       334       330       329       331       331       334       335
       331       334       336       331       334       337       332       331       333
       332       331       334       333       331       334       334       337       338
       334       337       339       334       337       340       335       334       336
       335       334       337       336       334       337       337       340       341
       337       340       342       337       340       343       338       337       339
       338       337       340       339       337       340       340       343       344
       340       343       345       340       343       346       341       340       342
       341       340       343       342       340       343       344       343       345
       344       343       346       345       343       346       347       350       351
       347       350       352       347       350       353       348       347       349
       348       347       350       349       347       350       350       353       354
       350       353       355       350       353       356       351       350       352
       351       350       353       352       350       353       353       356       357
       353       356       358       353       356       359       354       353       355
       354       353       356       355       353       356       356       359       360
       356       359       361       356       359       362       357       356       358
       357       356       359       358       356       359       359       362       363
       359       362       364       359       362       365       360       359       361
       360       359       362       361       359       362       362       365       366
       362       365       367       362       365       368       363       362       364
       363       362       365       364       362       365       365       368       369
       365       368       370       365       368       371       366       365       367
       366       365       368       367       365       368       368       371       372
       368       371       373       368       371       374       369       368       370
       369       368       371       370       368       371       371       374       375
       371       374       376       371       374       377       372       371       373
       372       371       374       373       371       374       374       377       378
       374       377       379       374       377       380       375       374       376
       375       374       377       376       374       377       377       380       381
       377       380       382       377       380       383       378       377       379
       378       377       380       379       377       380       380       383       384
       380       383       385       380       383       386       381       380       382
       381       380       383       382       380       383       383       386       387
       383       386       388       383       386       389       384       383       385
       384       383       386       385       383       386       386       389       390
       386       389       391       386       389       392       387       386       388
       387       386       389       388       386       389       389       392       393
       389       392       394       389       392       395       390       389       391
       390       389       392       391       389       392       393       392       394
       393       392       395       394       392       395       396       398       399
       396       400       401       396       400       402       396       400       403
       396       442       439       396       442       443       396       442       444
       397       396       398       397       396       400       397       396       442
       398       396       400       398       396       442       400       396       442
       400       403       404       400       403       434       401       400       402
       401       400       403       402       400       403       403       404       405
       403       404       406       403       434       432       403       434       435
       403       434       439       404       403       434       404       406       407
       404       406       408       404       406       409       405       404       406
       406       409       410       406       409       411       406       409       432
       407       406       408       407       406       409       408       406       409
       409       411       412       409       411       413       409       411       421
       409       432       429       409       432       433       409       432       434
       410       409       411       410       409       432       411       409       432
       411       413       414       411       413       415       411       413       416
       411       421       419       411       421       422       411       421       426
       412       411       413       412       411       421       413       411       421
       413       416       417       413       416       418       413       416       419
       414       413       415       414       413       416       415       413       416
       416       419       420       416       419       421       416       419       445
       417       416       418       417       416       419       418       416       419
       419       421       422       419       421       426       419       445       446
       419       445       447       419       445       451       420       419       421
       420       419       445       421       419       445       421       422       423
       421       422       424       421       422       425       421       426       427
       421       426       428       421       426       429       422       421       426
       423       422       424       423       422       425       424       422       425
       426       429       430       426       429       431       426       429       432
       427       426       428       427       426       429       428       426       429
       429       432       433       429       432       434       430       429       431
       430       429       432       431       429       432       432       434       435
       432       434       439       433       432       434       434       435       436
       434       435       437       434       435       438       434       439       440
       434       439       441       434       439       442       435       434       439
       436       435       437       436       435       438       437       435       438
       439       442       443       439       442       444       440       439       441
       440       439       442       441       439       442       443       442       444
       445       447       448       445       447       449       445       447       450
       445       451       452       445       451       453       445       451       454
       446       445       447       446       445       451       447       445       451
       448       447       449       448       447       450       449       447       450
       451       454       455       451       454       456       451       454       457
       452       451       453       452       451       454       453       451       454
       454       457       458       454       457       459       454       457       460
       455       454       456       455       454       457       456       454       457
       457       460       461       457       460       462       457       460       466
       458       457       459       458       457       460       459       457       460
       460       462       463       460       462       464       460       462       465
       460       466       467       460       466       468       460       466       469
       461       460       462       461       460       466       462       460       466
       463       462       464       463       462       465       464       462       465
       467       466       468       467       466       469       468       466       469
       470       474       475       470       474       476       470       474       477
       471       470       472       471       470       473       471       470       474
       472       470       473       472       470       474       473       470       474
       474       477       478       474       477       479       474       477       483
       475       474       476       475       474       477       476       474       477
       477       483       480       478       477       479       478       477       483
       479       477       483       480       484       485       481       480       482
       481       480       483       481       480       484       482       480       483
       482       480       484       483       480       484       484       485       486
       484       485       487       484       485       488       485       488       489
       485       488       490       485       488       496       486       485       487
       486       485       488       487       485       488       488       490       491
       488       496       497       488       496       498       488       496       499
       489       488       490       489       488       496       490       488       496
       490       491       492       490       491       493       491       493       494
       491       493       495       491       493       505       492       491       493
       493       505       506       493       505       507       493       505       508
       494       493       495       494       493       505       495       493       505
       496       499       500       497       496       498       497       496       499
       498       496       499       499       500       501       499       500       502
       500       502       503       500       502       504       500       502       552
       501       500       502       502       552       553       502       552       554
       502       552       555       503       502       504       503       502       552
       504       502       552       505       508       509       505       508       510
       505       508       511       506       505       507       506       505       508
       507       505       508       508       511       512       508       511       513
       509       508       510       509       508       511       510       508       511
       511       513       514       511       513       515       512       511       513
       513       515       516       513       515       517       513       515       518
       514       513       515       515       518       519       515       518       520
       516       515       517       516       515       518       517       515       518
       518       520       521       518       520       522       519       518       520
       520       522       523       520       522       524       520       522       525
       521       520       522       522       525       526       522       525       527
       523       522       524       523       522       525       524       522       525
       525       527       528       525       527       529       526       525       527
       527       529       530       527       529       531       527       529       532
       528       527       529       529       532       533       529       532       534
       530       529       531       530       529       532       531       529       532
       532       534       535       532       534       536       533       532       534
       534       536       537       534       536       538       534       536       539
       535       534       536       536       539       540       536       539       541
       536       539       542       537       536       538       537       536       539
       538       536       539       539       542       543       539       542       544
       539       542       545       540       539       541       540       539       542
       541       539       542       542       545       546       542       545       547
       542       545       548       543       542       544       543       542       545
       544       542       545       545       548       549       545       548       550
       545       548       551       546       545       547       546       545       548
       547       545       548       549       548       550       549       548       551
       550       548       551       552       555       556       552       555       557
       552       555       558       553       552       554       553       552       555
       554       552       555       555       558       559       555       558       560
       555       558       561       556       555       557       556       555       558
       557       555       558       558       561       562       558       561       563
       558       561       564       559       558       560       559       558       561
       560       558       561       561       564       565       561       564       566
       561       564       567       562       561       563       562       561       564
       563       561       564       564       567       568       564       567       569
       564       567       570       565       564       566       565       564       567
       566       564       567       567       570       571       567       570       572
       567       570       573       568       567       569       568       567       570
       569       567       570       570       573       574       570       573       575
       570       573       576       571       570       572       571       570       573
       572       570       573       573       576       577       573       576       578
       573       576       579       574       573       575       574       573       576
       575       573       576       576       579       580       576       579       581
       576       579       582       577       576       578       577       576       579
       578       576       579       579       582       583       579       582       584
       579       582       585       580       579       581       580       579       582
       581       579       582       582       585       586       582       585       587
       582       585       588       583       582       584       583       582       585
       584       582       585       585       588       589       585       588       590
       585       588       591       586       585       587       586       585       588
       587       585       588       588       591       592       588       591       593
       588       591       594       589       588       590       589       588       591
       590       588       591       591       594       595       591       594       596
       591       594       597       592       591       593       592       591       594
       593       591       594       594       597       598       594       597       599
       594       597       600       595       594       596       595       594       597
       596       594       597       598       597       599       598       597       600
       599       597       600       601       603       604       601       605       606
       601       605       607       601       605       608       601       647       644
       601       647       648       601       647       649       602       601       603
       602       601       605       602       601       647       603       601       605
       603       601       647       605       601       647       605       608       609
       605       608       639       606       605       607       606       605       608
       607       605       608       608       609       610       608       609       611
       608       639       637       608       639       640       608       639       644
       609       608       639       609       611       612       609       611       613
       609       611       614       610       609       611       611       614       615
       611       614       616       611       614       637       612       611       613
       612       611       614       613       611       614       614       616       617
       614       616       618       614       616       626       614       637       634
       614       637       638       614       637       639       615       614       616
       615       614       637       616       614       637       616       618       619
       616       618       620       616       618       621       616       626       624
       616       626       627       616       626       631       617       616       618
       617       616       626       618       616       626       618       621       622
       618       621       623       618       621       624       619       618       620
       619       618       621       620       618       621       621       624       625
       621       624       626       621       624       650       622       621       623
       622       621       624       623       621       624       624       626       627
       624       626       631       624       650       651       624       650       652
       624       650       656       625       624       626       625       624       650
       626       624       650       626       627       628       626       627       629
       626       627       630       626       631       632       626       631       633
       626       631       634       627       626       631       628       627       629
       628       627       630       629       627       630       631       634       635
       631       634       636       631       634       637       632       631       633
       632       631       634       633       631       634       634       637       638
       634       637       639       635       634       636       635       634       637
       636       634       637       637       639       640       637       639       644
       638       637       639       639       640       641       639       640       642
       639       640       643       639       644       645       639       644       646
       639       644       647       640       639       644       641       640       642
       641       640       643       642       640       643       644       647       648
       644       647       649       645       644       646       645       644       647
       646       644       647       648       647       649       650       652       653
       650       652       654       650       652       655       650       656       657
       650       656       658       650       656       659       651       650       652
       651       650       656       652       650       656       653       652       654
       653       652       655       654       652       655       656       659       660
       656       659       661       656       659       662       657       656       658
       657       656       659       658       656       659       659       662       663
       659       662       664       659       662       665       660       659       661
       660       659       662       661       659       662       662       665       666
       662       665       667       662       665       671       663       662       664
       663       662       665       664       662       665       665       667       668
       665       667       669       665       667       670       665       671       672
       665       671       673       665       671       674       666       665       667
       666       665       671       667       665       671       668       667       669
       668       667       670       669       667       670       672       671       673
       672       671       674       673       671       674       675       676       677
       675       676       678       675       676       679       675       680       681
       675       680       682       675       680       683       675       684       685
       675       684       686       675       684       687       675       688       689
       675       688       690       675       688       691       676       675       680
       676       675       684       676       675       688       677       676       678
       677       676       679       678       676       679       680       675       684
       680       675       688       681       680       682       681       680       683
       682       680       683       684       675       688       685       684       686
       685       684       687       686       684       687       688       691       692
       688       691       693       688       691       698       689       688       690
       689       688       691       690       688       691       691       698       694
       692       691       693       692       691       698       693       691       698
       694       697       699       695       694       696       695       694       697
       695       694       698       696       694       697       696       694       698
       697       694       698       697       699       700       697       699       701
       697       699       704       699       704       702       699       704       705
       699       704       706       700       699       701       700       699       704
       701       699       704       702       704       705       702       704       706
       702       754       755       702       754       756       703       702       704
       703       702       754       704       702       754       704       706       707
       704       706       708       704       706       710       705       704       706
       706       708       709       706       710       711       706       710       712
       707       706       708       707       706       710       708       706       710
       710       712       713       710       712       714       711       710       712
       712       714       715       712       714       716       712       714       717
       713       712       714       714       717       718       714       717       719
       714       717       720       715       714       716       715       714       717
       716       714       717       717       720       721       717       720       722
       717       720       723       718       717       719       718       717       720
       719       717       720       720       723       724       720       723       725
       720       723       726       721       720       722       721       720       723
       722       720       723       723       726       727       723       726       728
       723       726       729       724       723       725       724       723       726
       725       723       726       726       729       730       726       729       731
       726       729       732       727       726       728       727       726       729
       728       726       729       729       732       733       729       732       734
       729       732       735       730       729       731       730       729       732
       731       729       732       732       735       736       732       735       737
       732       735       738       733       732       734       733       732       735
       734       732       735       735       738       739       735       738       740
       735       738       741       736       735       737       736       735       738
       737       735       738       738       741       742       738       741       743
       738       741       744       739       738       740       739       738       741
       740       738       741       741       744       745       741       744       746
       741       744       747       742       741       743       742       741       744
       743       741       744       744       747       748       744       747       749
       744       747       750       745       744       746       745       744       747
       746       744       747       747       750       751       747       750       752
       747       750       753       748       747       749       748       747       750
       749       747       750       751       750       752       751       750       753
       752       750       753       754       756       757       754       756       758
       754       756       759       755       754       756       756       759       760
       756       759       761       756       759       762       757       756       758
       757       756       759       758       756       759       759       762       763
       759       762       764       759       762       765       760       759       761
       760       759       762       761       759       762       762       765       766
       762       765       767       762       765       768       763       762       764
       763       762       765       764       762       765       765       768       769
       765       768       770       765       768       771       766       765       767
       766       765       768       767       765       768       768       771       772
       768       771       773       768       771       774       769       768       770
       769       768       771       770       768       771       771       774       775
       771       774       776       771       774       777       772       771       773
       772       771       774       773       771       774       774       777       778
       774       777       779       775       774       776       775       774       777
       776       774       777       777       779       780       777       779       781
       778       777       779       779       781       782       779       781       783
       779       781       784       780       779       781       781       784       785
       781       784       786       781       784       787       782       781       783
       782       781       784       783       781       784       784       787       788
       784       787       789       784       787       790       785       784       786
       785       784       787       786       784       787       787       790       791
       787       790       792       787       790       793       788       787       789
       788       787       790       789       787       790       790       793       794
       790       793       795       790       793       796       791       790       792
       791       790       793       792       790       793       793       796       797
       793       796       798       793       796       799       794       793       795
       794       793       796       795       793       796       796       799       800
       796       799       801       796       799       802       797       796       798
       797       796       799       798       796       799       799       802       803
       799       802       804       799       802       805       800       799       801
       800       799       802       801       799       802       803       802       804
       803       802       805       804       802       805       806       808       809
       806       810       811       806       810       812       806       810       813
       806       852       849       806       852       853       806       852       854
       807       806       808       807       806       810       807       806       852
       808       806       810       808       806       852       810       806       852
       810       813       814       810       813       844       811       810       812
       811       810       813       812       810       813       813       814       815
       813       814       816       813       844       842       813       844       845
       813       844       849       814       813       844       814       816       817
       814       816       818       814       816       819       815       814       816
       816       819       820       816       819       821       816       819       842
       817       816       818       817       816       819       818       816       819
       819       821       822       819       821       823       819       821       831
       819       842       839       819       842       843       819       842       844
       820       819       821       820       819       842       821       819       842
       821       823       824       821       823       825       821       823       826
       821       831       829       821       831       832       821       831       836
       822       821       823       822       821       831       823       821       831
       823       826       827       823       826       828       823       826       829
       824       823       825       824       823       826       825       823       826
       826       829       830       826       829       831       826       829       855
       827       826       828       827       826       829       828       826       829
       829       831       832       829       831       836       829       855       856
       829       855       857       829       855       861       830       829       831
       830       829       855       831       829       855       831       832       833
       831       832       834       831       832       835       831       836       837
       831       836       838       831       836       839       832       831       836
       833       832       834       833       832       835       834       832       835
       836       839       840       836       839       841       836       839       842
       837       836       838       837       836       839       838       836       839
       839       842       843       839       842       844       840       839       841
       840       839       842       841       839       842       842       844       845
       842       844       849       843       842       844       844       845       846
       844       845       847       844       845       848       844       849       850
       844       849       851       844       849       852       845       844       849
       846       845       847       846       845       848       847       845       848
       849       852       853       849       852       854       850       849       851
       850       849       852       851       849       852       853       852       854
       855       857       858       855       857       859       855       857       860
       855       861       862       855       861       863       855       861       864
       856       855       857       856       855       861       857       855       861
       858       857       859       858       857       860       859       857       860
       861       864       865       861       864       866       861       864       867
       862       861       863       862       861       864       863       861       864
       864       867       868       864       867       869       864       867       870
       865       864       866       865       864       867       866       864       867
       867       870       871       867       870       872       867       870       876
       868       867       869       868       867       870       869       867       870
       870       872       873       870       872       874       870       872       875
       870       876       877       870       876       878       870       876       879
       871       870       872       871       870       876       872       870       876
       873       872       874       873       872       875       874       872       875
       877       876       878       877       876       879       878       876       879
       880       881       882       880       881       883       880       881       884
       880       885       886       880       885       887       880       885       888
       880       889       890       880       889       891       880       889       892
       880       893       894       880       893       895       880       893       896
       881       880       885       881       880       889       881       880       893
       882       881       883       882       881       884       883       881       884
       885       880       889       885       880       893       886       885       887
       886       885       888       887       885       888       889       880       893
       890       889       891       890       889       892       891       889       892
       893       896       897       893       896       898       893       896       903
       894       893       895       894       893       896       895       893       896
       896       903       899       897       896       898       897       896       903
       898       896       903       899       902       904       900       899       901
       900       899       902       900       899       903       901       899       902
       901       899       903       902       899       903       902       904       905
       902       904       906       902       904       909       904       909       907
       904       909       910       904       909       911       905       904       906
       905       904       909       906       904       909       907       909       910
       907       909       911       907       959       960       907       959       961
       908       907       909       908       907       959       909       907       959
       909       911       912       909       911       913       909       911       915
       910       909       911       911       913       914       911       915       916
       911       915       917       912       911       913       912       911       915
       913       911       915       915       917       918       915       917       919
       916       915       917       917       919       920       917       919       921
       917       919       922       918       917       919       919       922       923
       919       922       924       919       922       925       920       919       921
       920       919       922       921       919       922       922       925       926
       922       925       927       922       925       928       923       922       924
       923       922       925       924       922       925       925       928       929
       925       928       930       925       928       931       926       925       927
       926       925       928       927       925       928       928       931       932
       928       931       933       928       931       934       929       928       930
       929       928       931       930       928       931       931       934       935
       931       934       936       931       934       937       932       931       933
       932       931       934       933       931       934       934       937       938
       934       937       939       934       937       940       935       934       936
       935       934       937       936       934       937       937       940       941
       937       940       942       937       940       943       938       937       939
       938       937       940       939       937       940       940       943       944
       940       943       945       940       943       946       941       940       942
       941       940       943       942       940       943       943       946       947
       943       946       948       943       946       949       944       943       945
       944       943       946       945       943       946       946       949       950
       946       949       951       946       949       952       947       946       948
       947       946       949       948       946       949       949       952       953
       949       952       954       949       952       955       950       949       951
       950       949       952       951       949       952       952       955       956
       952       955       957       952       955       958       953       952       954
       953       952       955       954       952       955       956       955       957
       956       955       958       957       955       958       959       961       962
       959       961       963       959       961       964       960       959       961
       961       964       965       961       964       966       961       964       967
       962       961       963       962       961       964       963       961       964
       964       967       968       964       967       969       964       967       970
       965       964       966       965       964       967       966       964       967
       967       970       971       967       970       972       967       970       973
       968       967       969       968       967       970       969       967       970
       970       973       974       970       973       975       970       973       976
       971       970       972       971       970       973       972       970       973
       973       976       977       973       976       978       973       976       979
       974       973       975       974       973       976       975       973       976
       976       979       980       976       979       981       976       979       982
       977       976       978       977       976       979       978       976       979
       979       982       983       979       982       984       980       979       981
       980       979       982       981       979       982       982       984       985
       982       984       986       983       982       984       984       986       987
       984       986       988       984       986       989       985       984       986
       986       989       990       986       989       991       986       989       992
       987       986       988       987       986       989       988       986       989
       989       992       993       989       992       994       989       992       995
       990       989       991       990       989       992       991       989       992
       992       995       996       992       995       997       992       995       998
       993       992       994       993       992       995       994       992       995
       995       998       999       995       998      1000       995       998      1001
       996       995       997       996       995       998       997       995       998
       998      1001      1002       998      1001      1003       998      1001      1004
       999       998      1000       999       998      1001      1000       998      1001
      1001      1004      1005      1001      1004      1006      1001      1004      1007
      1002      1001      1003      1002      1001      1004      1003      1001      1004
      1004      1007      1008      1004      1007      1009      1004      1007      1010
      1005      1004      1006      1005      1004      1007      1006      1004      1007
      1008      1007      1009      1008      1007      1010      1009      1007      1010
      1011      1013      1014      1011      1015      1016      1011      1015      1017
      1011      1015      1018      1011      1057      1054      1011      1057      1058
      1011      1057      1059      1012      1011      1013      1012      1011      1015
      1012      1011      1057      1013      1011      1015      1013      1011      1057
      1015      1011      1057      1015      1018      1019      1015      1018      1049
      1016      1015      1017      1016      1015      1018      1017      1015      1018
      1018      1019      1020      1018      1019      1021      1018      1049      1047
      1018      1049      1050      1018      1049      1054      1019      1018      1049
      1019      1021      1022      1019      1021      1023      1019      1021      1024
      1020      1019      1021      1021      1024      1025      1021      1024      1026
      1021      1024      1047      1022      1021      1023      1022      1021      1024
      1023      1021      1024      1024      1026      1027      1024      1026      1028
      1024      1026      1036      1024      1047      1044      1024      1047      1048
      1024      1047      1049      1025      1024      1026      1025      1024      1047
      1026      1024      1047      1026      1028      1029      1026      1028      1030
      1026      1028      1031      1026      1036      1034      1026      1036      1037
      1026      1036      1041      1027      1026      1028      1027      1026      1036
      1028      1026      1036      1028      1031      1032      1028      1031      1033
      1028      1031      1034      1029      1028      1030      1029      1028      1031
      1030      1028      1031      1031      1034      1035      1031      1034      1036
      1031      1034      1060      1032      1031      1033      1032      1031      1034
      1033      1031      1034      1034      1036      1037      1034      1036      1041
      1034      1060      1061      1034      1060      1062      1034      1060      1066
      1035      1034      1036      1035      1034      1060      1036      1034      1060
      1036      1037      1038      1036      1037      1039      1036      1037      1040
      1036      1041      1042      1036      1041      1043      1036      1041      1044
      1037      1036      1041      1038      1037      1039      1038      1037      1040
      1039      1037      1040      1041      1044      1045      1041      1044      1046
      1041      1044      1047      1042      1041      1043      1042      1041      1044
      1043      1041      1044      1044      1047      1048      1044      1047      1049
      1045      1044      1046      1045      1044      1047      1046      1044      1047
      1047      1049      1050      1047      1049      1054      1048      1047      1049
      1049      1050      1051      1049      1050      1052      1049      1050      1053
      1049      1054      1055      1049      1054      1056      1049      1054      1057
      1050      1049      1054      1051      1050      1052      1051      1050      1053
      1052      1050      1053      1054      1057      1058      1054      1057      1059
      1055      1054      1056      1055      1054      1057      1056      1054      1057
      1058      1057      1059      1060      1062      1063      1060      1062      1064
      1060      1062      1065      1060      1066      1067      1060      1066      1068
      1060      1066      1069      1061      1060      1062      1061      1060      1066
      1062      1060      1066      1063      1062      1064      1063      1062      1065
      1064      1062      1065      1066      1069      1070      1066      1069      1071
      1066      1069      1072      1067      1066      1068      1067      1066      1069
      1068      1066      1069      1069      1072      1073      1069      1072      1074
      1069      1072      1075      1070      1069      1071      1070      1069      1072
      1071      1069      1072      1072      1075      1076      1072      1075      1077
      1072      1075      1081      1073      1072      1074      1073      1072      1075
      1074      1072      1075      1075      1077      1078      1075      1077      1079
      1075      1077      1080      1075      1081      1082      1075      1081      1083
      1075      1081      1084      1076      1075      1077      1076      1075      1081
      1077      1075      1081      1078      1077      1079      1078      1077      1080
      1079      1077      1080      1082      1081      1083      1082      1081      1084
      1083      1081      1084      1085      1087      1088      1085      1089      1090
      1085      1089      1091      1085      1089      1092      1085      1131      1128
      1085      1131      1132      1085      1131      1133      1086      1085      1087
      1086      1085      1089      1086      1085      1131      1087      1085      1089
      1087      1085      1131      1089      1085      1131      1089      1092      1093
      1089      1092      1123      1090      1089      1091      1090      1089      1092
      1091      1089      1092      1092      1093      1094      1092      1093      1095
      1092      1123      1121      1092      1123      1124      1092      1123      1128
      1093      1092      1123      1093      1095      1096      1093      1095      1097
      1093      1095      1098      1094      1093      1095      1095      1098      1099
      1095      1098      1100      1095      1098      1121      1096      1095      1097
      1096      1095      1098      1097      1095      1098      1098      1100      1101
      1098      1100      1102      1098      1100      1110      1098      1121      1118
      1098      1121      1122      1098      1121      1123      1099      1098      1100
      1099      1098      1121      1100      1098      1121      1100      1102      1103
      1100      1102      1104      1100      1102      1105      1100      1110      1108
      1100      1110      1111      1100      1110      1115      1101      1100      1102
      1101      1100      1110      1102      1100      1110      1102      1105      1106
      1102      1105      1107      1102      1105      1108      1103      1102      1104
      1103      1102      1105      1104      1102      1105      1105      1108      1109
      1105      1108      1110      1105      1108      1134      1106      1105      1107
      1106      1105      1108      1107      1105      1108      1108      1110      1111
      1108      1110      1115      1108      1134      1135      1108      1134      1136
      1108      1134      1140      1109      1108      1110      1109      1108      1134
      1110      1108      1134      1110      1111      1112      1110      1111      1113
      1110      1111      1114      1110      1115      1116      1110      1115      1117
      1110      1115      1118      1111      1110      1115      1112      1111      1113
      1112      1111      1114      1113      1111      1114      1115      1118      1119
      1115      1118      1120      1115      1118      1121      1116      1115      1117
      1116      1115      1118      1117      1115      1118      1118      1121      1122
      1118      1121      1123      1119      1118      1120      1119      1118      1121
      1120      1118      1121      1121      1123      1124      1121      1123      1128
      1122      1121      1123      1123      1124      1125      1123      1124      1126
      1123      1124      1127      1123      1128      1129      1123      1128      1130
      1123      1128      1131      1124      1123      1128      1125      1124      1126
      1125      1124      1127      1126      1124      1127      1128      1131      1132
      1128      1131      1133      1129      1128      1130      1129      1128      1131
      1130      1128      1131      1132      1131      1133      1134      1136      1137
      1134      1136      1138      1134      1136      1139      1134      1140      1141
      1134      1140      1142      1134      1140      1143      1135      1134      1136
      1135      1134      1140      1136      1134      1140      1137      1136      1138
      1137      1136      1139      1138      1136      1139      1140      1143      1144
      1140      1143      1145      1140      1143      1146      1141      1140      1142
      1141      1140      1143      1142      1140      1143      1143      1146      1147
      1143      1146      1148      1143      1146      1149      1144      1143      1145
      1144      1143      1146      1145      1143      1146      1146      1149      1150
      1146      1149      1151      1146      1149      1155      1147      1146      1148
      1147      1146      1149      1148      1146      1149      1149      1151      1152
      1149      1151      1153      1149      1151      1154      1149      1155      1156
      1149      1155      1157      1149      1155      1158      1150      1149      1151
      1150      1149      1155      1151      1149      1155      1152      1151      1153
      1152      1151      1154      1153      1151      1154      1156      1155      1157
      1156      1155      1158      1157      1155      1158      1159      1163      1164
      1159      1163      1165      1159      1163      1166      1160      1159      1161
      1160      1159      1162      1160      1159      1163      1161      1159      1162
      1161      1159      1163      1162      1159      1163      1163      1166      1167
      1163      1166      1168      1163      1166      1172      1164      1163      1165
      1164      1163      1166      1165      1163      1166      1166      1172      1169
      1167      1166      1168      1167      1166      1172      1168      1166      1172
      1169      1173      1174      1170      1169      1171      1170      1169      1172
      1170      1169      1173      1171      1169      1172      1171      1169      1173
      1172      1169      1173      1173      1174      1175      1173      1174      1176
      1173      1174      1177      1174      1177      1178      1174      1177      1179
      1174      1177      1185      1175      1174      1176      1175      1174      1177
      1176      1174      1177      1177      1179      1180      1177      1185      1186
      1177      1185      1187      1177      1185      1188      1178      1177      1179
      1178      1177      1185      1179      1177      1185      1179      1180      1181
      1179      1180      1182      1180      1182      1183      1180      1182      1184
      1180      1182      1194      1181      1180      1182      1182      1194      1195
      1182      1194      1196      1182      1194      1197      1183      1182      1184
      1183      1182      1194      1184      1182      1194      1185      1188      1189
      1186      1185      1187      1186      1185      1188      1187      1185      1188
      1188      1189      1190      1188      1189      1191      1189      1191      1192
      1189      1191      1193      1189      1191      1241      1190      1189      1191
      1191      1241      1242      1191      1241      1243      1191      1241      1244
      1192      1191      1193      1192      1191      1241      1193      1191      1241
      1194      1197      1198      1194      1197      1199      1194      1197      1200
      1195      1194      1196      1195      1194      1197      1196      1194      1197
      1197      1200      1201      1197      1200      1202      1198      1197      1199
      1198      1197      1200      1199      1197      1200      1200      1202      1203
      1200      1202      1204      1201      1200      1202      1202      1204      1205
      1202      1204      1206      1202      1204      1207      1203      1202      1204
      1204      1207      1208      1204      1207      1209      1205      1204      1206
      1205      1204      1207      1206      1204      1207      1207      1209      1210
      1207      1209      1211      1208      1207      1209      1209      1211      1212
      1209      1211      1213      1209      1211      1214      1210      1209      1211
      1211      1214      1215      1211      1214      1216      1212      1211      1213
      1212      1211      1214      1213      1211      1214      1214      1216      1217
      1214      1216      1218      1215      1214      1216      1216      1218      1219
      1216      1218      1220      1216      1218      1221      1217      1216      1218
      1218      1221      1222      1218      1221      1223      1219      1218      1220
      1219      1218      1221      1220      1218      1221      1221      1223      1224
      1221      1223      1225      1222      1221      1223      1223      1225      1226
      1223      1225      1227      1223      1225      1228      1224      1223      1225
      1225      1228      1229      1225      1228      1230      1225      1228      1231
      1226      1225      1227      1226      1225      1228      1227      1225      1228
      1228      1231      1232      1228      1231      1233      1228      1231      1234
      1229      1228      1230      1229      1228      1231      1230      1228      1231
      1231      1234      1235      1231      1234      1236      1231      1234      1237
      1232      1231      1233      1232      1231      1234      1233      1231      1234
      1234      1237      1238      1234      1237      1239      1234      1237      1240
      1235      1234      1236      1235      1234      1237      1236      1234      1237
      1238      1237      1239      1238      1237      1240      1239      1237      1240
      1241      1244      1245      1241      1244      1246      1241      1244      1247
      1242      1241      1243      1242      1241      1244      1243      1241      1244
      1244      1247      1248      1244      1247      1249      1244      1247      1250
      1245      1244      1246      1245      1244      1247      1246      1244      1247
      1247      1250      1251      1247      1250      1252      1247      1250      1253
      1248      1247      1249      1248      1247      1250      1249      1247      1250
      1250      1253      1254      1250      1253      1255      1250      1253      1256
      1251      1250      1252      1251      1250      1253      1252      1250      1253
      1253      1256      1257      1253      1256      1258      1253      1256      1259
      1254      1253      1255      1254      1253      1256      1255      1253      1256
      1256      1259      1260      1256      1259      1261      1256      1259      1262
      1257      1256      1258      1257      1256      1259      1258      1256      1259
      1259      1262      1263      1259      1262      1264      1259      1262      1265
      1260      1259      1261      1260      1259      1262      1261      1259      1262
      1262      1265      1266      1262      1265      1267      1262      1265      1268
      1263      1262      1264      1263      1262      1265      1264      1262      1265
      1265      1268      1269      1265      1268      1270      1265      1268      1271
      1266      1265      1267      1266      1265      1268      1267      1265      1268
      1268      1271      1272      1268      1271      1273      1268      1271      1274
      1269      1268      1270      1269      1268      1271      1270      1268      1271
      1271      1274      1275      1271      1274      1276      1271      1274      1277
      1272      1271      1273      1272      1271      1274      1273      1271      1274
      1274      1277      1278      1274      1277      1279      1274      1277      1280
      1275      1274      1276      1275      1274      1277      1276      1274      1277
      1277      1280      1281      1277      1280      1282      1277      1280      1283
      1278      1277      1279      1278      1277      1280      1279      1277      1280
      1280      1283      1284      1280      1283      1285      1280      1283      1286
      1281      1280      1282      1281      1280      1283      1282      1280      1283
      1283      1286      1287      1283      1286      1288      1283      1286      1289
      1284      1283      1285      1284      1283      1286      1285      1283      1286
      1287      1286      1288      1287      1286      1289      1288      1286      1289
      1290      1292      1293      1290      1294      1295      1290      1294      1296
      1290      1294      1297      1290      1336      1333      1290      1336      1337
      1290      1336      1338      1291      1290      1292      1291      1290      1294
      1291      1290      1336      1292      1290      1294      1292      1290      1336
      1294      1290      1336      1294      1297      1298      1294      1297      1328
      1295      1294      1296      1295      1294      1297      1296      1294      1297
      1297      1298      1299      1297      1298      1300      1297      1328      1326
      1297      1328      1329      1297      1328      1333      1298      1297      1328
      1298      1300      1301      1298      1300      1302      1298      1300      1303
      1299      1298      1300      1300      1303      1304      1300      1303      1305
      1300      1303      1326      1301      1300      1302      1301      1300      1303
      1302      1300      1303      1303      1305      1306      1303      1305      1307
      1303      1305      1315      1303      1326      1323      1303      1326      1327
      1303      1326      1328      1304      1303      1305      1304      1303      1326
      1305      1303      1326      1305      1307      1308      1305      1307      1309
      1305      1307      1310      1305      1315      1313      1305      1315      1316
      1305      1315      1320      1306      1305      1307      1306      1305      1315
      1307      1305      1315      1307      1310      1311      1307      1310      1312
      1307      1310      1313      1308      1307      1309      1308      1307      1310
      1309      1307      1310      1310      1313      1314      1310      1313      1315
      1310      1313      1339      1311      1310      1312      1311      1310      1313
      1312      1310      1313      1313      1315      1316      1313      1315      1320
      1313      1339      1340      1313      1339      1341      1313      1339      1345
      1314      1313      1315      1314      1313      1339      1315      1313      1339
      1315      1316      1317      1315      1316      1318      1315      1316      1319
      1315      1320      1321      1315      1320      1322      1315      1320      1323
      1316      1315      1320      1317      1316      1318      1317      1316      1319
      1318      1316      1319      1320      1323      1324      1320      1323      1325
      1320      1323      1326      1321      1320      1322      1321      1320      1323
      1322      1320      1323      1323      1326      1327      1323      1326      1328
      1324      1323      1325      1324      1323      1326      1325      1323      1326
      1326      1328      1329      1326      1328      1333      1327      1326      1328
      1328      1329      1330      1328      1329      1331      1328      1329      1332
      1328      1333      1334      1328      1333      1335      1328      1333      1336
      1329      1328      1333      1330      1329      1331      1330      1329      1332
      1331      1329      1332      1333      1336      1337      1333      1336      1338
      1334      1333      1335      1334      1333      1336      1335      1333      1336
      1337      1336      1338      1339      1341      1342      1339      1341      1343
      1339      1341      1344      1339      1345      1346      1339      1345      1347
      1339      1345      1348      1340      1339      1341      1340      1339      1345
      1341      1339      1345      1342      1341      1343      1342      1341      1344
      1343      1341      1344      1345      1348      1349      1345      1348      1350
      1345      1348      1351      1346      1345      1347      1346      1345      1348
      1347      1345      1348      1348      1351      1352      1348      1351      1353
      1348      1351      1354      1349      1348      1350      1349      1348      1351
      1350      1348      1351      1351      1354      1355      1351      1354      1356
      1351      1354      1360      1352      1351      1353      1352      1351      1354
      1353      1351      1354      1354      1356      1357      1354      1356      1358
      1354      1356      1359      1354      1360      1361      1354      1360      1362
      1354      1360      1363      1355      1354      1356      1355      1354      1360
      1356      1354      1360      1357      1356      1358      1357      1356      1359
      1358      1356      1359      1361      1360      1362      1361      1360      1363
      1362      1360      1363      1364      1365      1366      1364      1365      1367
      1364      1365      1368      1364      1369      1370      1364      1369      1371
      1364      1369      1372      1364      1373      1374      1364      1373      1375
      1364      1373      1376      1364      1377      1378      1364      1377      1379
      1364      1377      1380      1365      1364      1369      1365      1364      1373
      1365      1364      1377      1366      1365      1367      1366      1365      1368
      1367      1365      1368      1369      1364      1373      1369      1364      1377
      1370      1369      1371      1370      1369      1372      1371      1369      1372
      1373      1364      1377      1374      1373      1375      1374      1373      1376
      1375      1373      1376      1377      1380      1381      1377      1380      1382
      1377      1380      1386      1378      1377      1379      1378      1377      1380
      1379      1377      1380      1380      1386      1383      1381      1380      1382
      1381      1380      1386      1382      1380      1386      1383      1387      1388
      1384      1383      1385      1384      1383      1386      1384      1383      1387
      1385      1383      1386      1385      1383      1387      1386      1383      1387
      1387      1388      1389      1387      1388      1390      1387      1388      1391
      1388      1391      1392      1388      1391      1393      1388      1391      1399
      1389      1388      1390      1389      1388      1391      1390      1388      1391
      1391      1393      1394      1391      1399      1400      1391      1399      1401
      1391      1399      1402      1392      1391      1393      1392      1391      1399
      1393      1391      1399      1393      1394      1395      1393      1394      1396
      1394      1396      1397      1394      1396      1398      1394      1396      1408
      1395      1394      1396      1396      1408      1409      1396      1408      1410
      1396      1408      1411      1397      1396      1398      1397      1396      1408
      1398      1396      1408      1399      1402      1403      1400      1399      1401
      1400      1399      1402      1401      1399      1402      1402      1403      1404
      1402      1403      1405      1403      1405      1406      1403      1405      1407
      1403      1405      1453      1404      1403      1405      1405      1453      1454
      1405      1453      1455      1405      1453      1456      1406      1405      1407
      1406      1405      1453      1407      1405      1453      1408      1411      1412
      1408      1411      1413      1408      1411      1414      1409      1408      1410
      1409      1408      1411      1410      1408      1411      1411      1414      1415
      1411      1414      1416      1411      1414      1417      1412      1411      1413
      1412      1411      1414      1413      1411      1414      1414      1417      1418
      1414      1417      1419      1414      1417      1420      1415      1414      1416
      1415      1414      1417      1416      1414      1417      1417      1420      1421
      1417      1420      1422      1417      1420      1423      1418      1417      1419
      1418      1417      1420      1419      1417      1420      1420      1423      1424
      1420      1423      1425      1420      1423      1426      1421      1420      1422
      1421      1420      1423      1422      1420      1423      1423      1426      1427
      1423      1426      1428      1424      1423      1425      1424      1423      1426
      1425      1423      1426      1426      1428      1429      1426      1428      1430
      1427      1426      1428      1428      1430      1431      1428      1430      1432
      1428      1430      1433      1429      1428      1430      1430      1433      1434
      1430      1433      1435      1431      1430      1432      1431      1430      1433
      1432      1430      1433      1433      1435      1436      1433      1435      1437
      1434      1433      1435      1435      1437      1438      1435      1437      1439
      1435      1437      1440      1436      1435      1437      1437      1440      1441
      1437      1440      1442      1437      1440      1443      1438      1437      1439
      1438      1437      1440      1439      1437      1440      1440      1443      1444
      1440      1443      1445      1440      1443      1446      1441      1440      1442
      1441      1440      1443      1442      1440      1443      1443      1446      1447
      1443      1446      1448      1443      1446      1449      1444      1443      1445
      1444      1443      1446      1445      1443      1446      1446      1449      1450
      1446      1449      1451      1446      1449      1452      1447      1446      1448
      1447      1446      1449      1448      1446      1449      1450      1449      1451
      1450      1449      1452      1451      1449      1452      1453      1456      1457
      1453      1456      1458      1453      1456      1459      1454      1453      1455
      1454      1453      1456      1455      1453      1456      1456      1459      1460
      1456      1459      1461      1456      1459      1462      1457      1456      1458
      1457      1456      1459      1458      1456      1459      1459      1462      1463
      1459      1462      1464      1459      1462      1465      1460      1459      1461
      1460      1459      1462      1461      1459      1462      1462      1465      1466
      1462      1465      1467      1462      1465      1468      1463      1462      1464
      1463      1462      1465      1464      1462      1465      1465      1468      1469
      1465      1468      1470      1465      1468      1471      1466      1465      1467
      1466      1465      1468      1467      1465      1468      1468      1471      1472
      1468      1471      1473      1468      1471      1474      1469      1468      1470
      1469      1468      1471      1470      1468      1471      1471      1474      1475
      1471      1474      1476      1471      1474      1477      1472      1471      1473
      1472      1471      1474      1473      1471      1474      1474      1477      1478
      1474      1477      1479      1474      1477      1480      1475      1474      1476
      1475      1474      1477      1476      1474      1477      1477      1480      1481
      1477      1480      1482      1477      1480      1483      1478      1477      1479
      1478      1477      1480      1479      1477      1480      1480      1483      1484
      1480      1483      1485      1480      1483      1486      1481      1480      1482
      1481      1480      1483      1482      1480      1483      1483      1486      1487
      1483      1486      1488      1483      1486      1489      1484      1483      1485
      1484      1483      1486      1485      1483      1486      1486      1489      1490
      1486      1489      1491      1486      1489      1492      1487      1486      1488
      1487      1486      1489      1488      1486      1489      1489      1492      1493
      1489      1492      1494      1489      1492      1495      1490      1489      1491
      1490      1489      1492      1491      1489      1492      1492      1495      1496
      1492      1495      1497      1492      1495      1498      1493      1492      1494
      1493      1492      1495      1494      1492      1495      1495      1498      1499
      1495      1498      1500      1495      1498      1501      1496      1495      1497
      1496      1495      1498      1497      1495      1498      1499      1498      1500
      1499      1498      1501      1500      1498      1501      1502      1503      1504
      1502      1503      1505      1502      1503      1518      1502      1506      1507
      1502      1506      1508      1502      1506      1509      1502      1510      1511
      1502      1510      1512      1502      1510      1513      1502      1514      1515
      1502      1514      1516      1502      1514      1517      1503      1502      1506
      1503      1502      1510      1503      1502      1514      1503      1518      1519
      1503      1518      1520      1503      1518      1524      1504      1503      1505
      1504      1503      1518      1505      1503      1518      1506      1502      1510
      1506      1502      1514      1507      1506      1508      1507      1506      1509
      1508      1506      1509      1510      1502      1514      1511      1510      1512
      1511      1510      1513      1512      1510      1513      1515      1514      1516
      1515      1514      1517      1516      1514      1517      1518      1524      1521
      1519      1518      1520      1519      1518      1524      1520      1518      1524
      1521      1525      1526      1522      1521      1523      1522      1521      1524
      1522      1521      1525      1523      1521      1524      1523      1521      1525
      1524      1521      1525      1525      1526      1527      1525      1526      1528
      1525      1526      1529      1526      1529      1530      1526      1529      1531
      1526      1529      1537      1527      1526      1528      1527      1526      1529
      1528      1526      1529      1529      1531      1532      1529      1537      1538
      1529      1537      1539      1529      1537      1540      1530      1529      1531
      1530      1529      1537      1531      1529      1537      1531      1532      1533
      1531      1532      1534      1532      1534      1535      1532      1534      1536
      1532      1534      1546      1533      1532      1534      1534      1546      1547
      1534      1546      1548      1534      1546      1549      1535      1534      1536
      1535      1534      1546      1536      1534      1546      1537      1540      1541
      1538      1537      1539      1538      1537      1540      1539      1537      1540
      1540      1541      1542      1540      1541      1543      1541      1543      1544
      1541      1543      1545      1541      1543      1593      1542      1541      1543
      1543      1593      1594      1543      1593      1595      1543      1593      1596
      1544      1543      1545      1544      1543      1593      1545      1543      1593
      1546      1549      1550      1546      1549      1551      1546      1549      1552
      1547      1546      1548      1547      1546      1549      1548      1546      1549
      1549      1552      1553      1549      1552      1554      1550      1549      1551
      1550      1549      1552      1551      1549      1552      1552      1554      1555
      1552      1554      1556      1553      1552      1554      1554      1556      1557
      1554      1556      1558      1554      1556      1559      1555      1554      1556
      1556      1559      1560      1556      1559      1561      1557      1556      1558
      1557      1556      1559      1558      1556      1559      1559      1561      1562
      1559      1561      1563      1560      1559      1561      1561      1563      1564
      1561      1563      1565      1561      1563      1566      1562      1561      1563
      1563      1566      1567      1563      1566      1568      1564      1563      1565
      1564      1563      1566      1565      1563      1566      1566      1568      1569
      1566      1568      1570      1567      1566      1568      1568      1570      1571
      1568      1570      1572      1568      1570      1573      1569      1568      1570
      1570      1573      1574      1570      1573      1575      1571      1570      1572
      1571      1570      1573      1572      1570      1573      1573      1575      1576
      1573      1575      1577      1574      1573      1575      1575      1577      1578
      1575      1577      1579      1575      1577      1580      1576      1575      1577
      1577      1580      1581      1577      1580      1582      1577      1580      1583
      1578      1577      1579      1578      1577      1580      1579      1577      1580
      1580      1583      1584      1580      1583      1585      1580      1583      1586
      1581      1580      1582      1581      1580      1583      1582      1580      1583
      1583      1586      1587      1583      1586      1588      1583      1586      1589
      1584      1583      1585      1584      1583      1586      1585      1583      1586
      1586      1589      1590      1586      1589      1591      1586      1589      1592
      1587      1586      1588      1587      1586      1589      1588      1586      1589
      1590      1589      1591      1590      1589      1592      1591      1589      1592
      1593      1596      1597      1593      1596      1598      1593      1596      1599
      1594      1593      1595      1594      1593      1596      1595      1593      1596
      1596      1599      1600      1596      1599      1601      1596      1599      1602
      1597      1596      1598      1597      1596      1599      1598      1596      1599
      1599      1602      1603      1599      1602      1604      1599      1602      1605
      1600      1599      1601      1600      1599      1602      1601      1599      1602
      1602      1605      1606      1602      1605      1607      1602      1605      1608
      1603      1602      1604      1603      1602      1605      1604      1602      1605
      1605      1608      1609      1605      1608      1610      1605      1608      1611
      1606      1605      1607      1606      1605      1608      1607      1605      1608
      1608      1611      1612      1608      1611      1613      1608      1611      1614
      1609      1608      1610      1609      1608      1611      1610      1608      1611
      1611      1614      1615      1611      1614      1616      1611      1614      1617
      1612      1611      1613      1612      1611      1614      1613      1611      1614
      1614      1617      1618      1614      1617      1619      1614      1617      1620
      1615      1614      1616      1615      1614      1617      1616      1614      1617
      1617      1620      1621      1617      1620      1622      1617      1620      1623
      1618      1617      1619      1618      1617      1620      1619      1617      1620
      1620      1623      1624      1620      1623      1625      1620      1623      1626
      1621      1620      1622      1621      1620      1623      1622      1620      1623
      1623      1626      1627      1623      1626      1628      1623      1626      1629
      1624      1623      1625      1624      1623      1626      1625      1623      1626
      1626      1629      1630      1626      1629      1631      1626      1629      1632
      1627      1626      1628      1627      1626      1629      1628      1626      1629
      1629      1632      1633      1629      1632      1634      1629      1632      1635
      1630      1629      1631      1630      1629      1632      1631      1629      1632
      1632      1635      1636      1632      1635      1637      1632      1635      1638
      1633      1632      1634      1633      1632      1635      1634      1632      1635
      1635      1638      1639      1635      1638      1640      1635      1638      1641
      1636      1635      1637      1636      1635      1638      1637      1635      1638
      1639      1638      1640      1639      1638      1641      1640      1638      1641
      1642      1643      1644      1642      1643      1645      1642      1643      1658
      1642      1646      1647      1642      1646      1648      1642      1646      1649
      1642      1650      1651      1642      1650      1652      1642      1650      1653
      1642      1654      1655      1642      1654      1656      1642      1654      1657
      1643      1642      1646      1643      1642      1650      1643      1642      1654
      1643      1658      1659      1643      1658      1660      1643      1658      1664
      1644      1643      1645      1644      1643      1658      1645      1643      1658
      1646      1642      1650      1646      1642      1654      1647      1646      1648
      1647      1646      1649      1648      1646      1649      1650      1642      1654
      1651      1650      1652      1651      1650      1653      1652      1650      1653
      1655      1654      1656      1655      1654      1657      1656      1654      1657
      1658      1664      1661      1659      1658      1660      1659      1658      1664
      1660      1658      1664      1661      1665      1666      1662      1661      1663
      1662      1661      1664      1662      1661      1665      1663      1661      1664
      1663      1661      1665      1664      1661      1665      1665      1666      1667
      1665      1666      1668      1665      1666      1669      1666      1669      1670
      1666      1669      1671      1666      1669      1677      1667      1666      1668
      1667      1666      1669      1668      1666      1669      1669      1671      1672
      1669      1677      1678      1669      1677      1679      1669      1677      1680
      1670      1669      1671      1670      1669      1677      1671      1669      1677
      1671      1672      1673      1671      1672      1674      1672      1674      1675
      1672      1674      1676      1672      1674      1686      1673      1672      1674
      1674      1686      1687      1674      1686      1688      1674      1686      1689
      1675      1674      1676      1675      1674      1686      1676      1674      1686
      1677      1680      1681      1678      1677      1679      1678      1677      1680
      1679      1677      1680      1680      1681      1682      1680      1681      1683
      1681      1683      1684      1681      1683      1685      1681      1683      1733
      1682      1681      1683      1683      1733      1734      1683      1733      1735
      1683      1733      1736      1684      1683      1685      1684      1683      1733
      1685      1683      1733      1686      1689      1690      1686      1689      1691
      1686      1689      1692      1687      1686      1688      1687      1686      1689
      1688      1686      1689      1689      1692      1693      1689      1692      1694
      1690      1689      1691      1690      1689      1692      1691      1689      1692
      1692      1694      1695      1692      1694      1696      1693      1692      1694
      1694      1696      1697      1694      1696      1698      1694      1696      1699
      1695      1694      1696      1696      1699      1700      1696      1699      1701
      1697      1696      1698      1697      1696      1699      1698      1696      1699
      1699      1701      1702      1699      1701      1703      1700      1699      1701
      1701      1703      1704      1701      1703      1705      1701      1703      1706
      1702      1701      1703      1703      1706      1707      1703      1706      1708
      1704      1703      1705      1704      1703      1706      1705      1703      1706
      1706      1708      1709      1706      1708      1710      1707      1706      1708
      1708      1710      1711      1708      1710      1712      1708      1710      1713
      1709      1708      1710      1710      1713      1714      1710      1713      1715
      1711      1710      1712      1711      1710      1713      1712      1710      1713
      1713      1715      1716      1713      1715      1717      1714      1713      1715
      1715      1717      1718      1715      1717      1719      1715      1717      1720
      1716      1715      1717      1717      1720      1721      1717      1720      1722
      1717      1720      1723      1718      1717      1719      1718      1717      1720
      1719      1717      1720      1720      1723      1724      1720      1723      1725
      1720      1723      1726      1721      1720      1722      1721      1720      1723
      1722      1720      1723      1723      1726      1727      1723      1726      1728
      1723      1726      1729      1724      1723      1725      1724      1723      1726
      1725      1723      1726      1726      1729      1730      1726      1729      1731
      1726      1729      1732      1727      1726      1728      1727      1726      1729
      1728      1726      1729      1730      1729      1731      1730      1729      1732
      1731      1729      1732      1733      1736      1737      1733      1736      1738
      1733      1736      1739      1734      1733      1735      1734      1733      1736
      1735      1733      1736      1736      1739      1740      1736      1739      1741
      1736      1739      1742      1737      1736      1738      1737      1736      1739
      1738      1736      1739      1739      1742      1743      1739      1742      1744
      1739      1742      1745      1740      1739      1741      1740      1739      1742
      1741      1739      1742      1742      1745      1746      1742      1745      1747
      1742      1745      1748      1743      1742      1744      1743      1742      1745
      1744      1742      1745      1745      1748      1749      1745      1748      1750
      1745      1748      1751      1746      1745      1747      1746      1745      1748
      1747      1745      1748      1748      1751      1752      1748      1751      1753
      1748      1751      1754      1749      1748      1750      1749      1748      1751
      1750      1748      1751      1751      1754      1755      1751      1754      1756
      1751      1754      1757      1752      1751      1753      1752      1751      1754
      1753      1751      1754      1754      1757      1758      1754      1757      1759
      1754      1757      1760      1755      1754      1756      1755      1754      1757
      1756      1754      1757      1757      1760      1761      1757      1760      1762
      1757      1760      1763      1758      1757      1759      1758      1757      1760
      1759      1757      1760      1760      1763      1764      1760      1763      1765
      1760      1763      1766      1761      1760      1762      1761      1760      1763
      1762      1760      1763      1763      1766      1767      1763      1766      1768
      1763      1766      1769      1764      1763      1765      1764      1763      1766
      1765      1763      1766      1766      1769      1770      1766      1769      1771
      1766      1769      1772      1767      1766      1768      1767      1766      1769
      1768      1766      1769      1769      1772      1773      1769      1772      1774
      1769      1772      1775      1770      1769      1771      1770      1769      1772
      1771      1769      1772      1772      1775      1776      1772      1775      1777
      1772      1775      1778      1773      1772      1774      1773      1772      1775
      1774      1772      1775      1775      1778      1779      1775      1778      1780
      1775      1778      1781      1776      1775      1777      1776      1775      1778
      1777      1775      1778      1779      1778      1780      1779      1778      1781
      1780      1778      1781      1782      1783      1784      1782      1783      1785
      1782      1783      1786      1782      1787      1788      1782      1787      1789
      1782      1787      1790      1782      1791      1792      1782      1791      1793
      1782      1791      1794      1782      1795      1796      1782      1795      1797
      1782      1795      1798      1783      1782      1787      1783      1782      1791
      1783      1782      1795      1784      1783      1785      1784      1783      1786
      1785      1783      1786      1787      1782      1791      1787      1782      1795
      1788      1787      1789      1788      1787      1790      1789      1787      1790
      1791      1782      1795      1792      1791      1793      1792      1791      1794
      1793      1791      1794      1795      1798      1799      1795      1798      1800
      1795      1798      1804      1796      1795      1797      1796      1795      1798
      1797      1795      1798      1798      1804      1801      1799      1798      1800
      1799      1798      1804      1800      1798      1804      1801      1805      1806
      1802      1801      1803      1802      1801      1804      1802      1801      1805
      1803      1801      1804      1803      1801      1805      1804      1801      1805
      1805      1806      1807      1805      1806      1808      1805      1806      1809
      1806      1809      1810      1806      1809      1811      1806      1809      1817
      1807      1806      1808      1807      1806      1809      1808      1806      1809
      1809      1811      1812      1809      1817      1818      1809      1817      1819
      1809      1817      1820      1810      1809      1811      1810      1809      1817
      1811      1809      1817      1811      1812      1813      1811      1812      1814
      1812      1814      1815      1812      1814      1816      1812      1814      1826
      1813      1812      1814      1814      1826      1827      1814      1826      1828
      1814      1826      1829      1815      1814      1816      1815      1814      1826
      1816      1814      1826      1817      1820      1821      1818      1817      1819
      1818      1817      1820      1819      1817      1820      1820      1821      1822
      1820      1821      1823      1821      1823      1824      1821      1823      1825
      1821      1823      1871      1822      1821      1823      1823      1871      1872
      1823      1871      1873      1823      1871      1874      1824      1823      1825
      1824      1823      1871      1825      1823      1871      1826      1829      1830
      1826      1829      1831      1826      1829      1832      1827      1826      1828
      1827      1826      1829      1828      1826      1829      1829      1832      1833
      1829      1832      1834      1829      1832      1835      1830      1829      1831
      1830      1829      1832      1831      1829      1832      1832      1835      1836
      1832      1835      1837      1832      1835      1838      1833      1832      1834
      1833      1832      1835      1834      1832      1835      1835      1838      1839
      1835      1838      1840      1835      1838      1841      1836      1835      1837
      1836      1835      1838      1837      1835      1838      1838      1841      1842
      1838      1841      1843      1838      1841      1844      1839      1838      1840
      1839      1838      1841      1840      1838      1841      1841      1844      1845
      1841      1844      1846      1842      1841      1843      1842      1841      1844
      1843      1841      1844      1844      1846      1847      1844      1846      1848
      1845      1844      1846      1846      1848      1849      1846      1848      1850
      1846      1848      1851      1847      1846      1848      1848      1851      1852
      1848      1851      1853      1849      1848      1850      1849      1848      1851
      1850      1848      1851      1851      1853      1854      1851      1853      1855
      1852      1851      1853      1853      1855      1856      1853      1855      1857
      1853      1855      1858      1854      1853      1855      1855      1858      1859
      1855      1858      1860      1855      1858      1861      1856      1855      1857
      1856      1855      1858      1857      1855      1858      1858      1861      1862
      1858      1861      1863      1858      1861      1864      1859      1858      1860
      1859      1858      1861      1860      1858      1861      1861      1864      1865
      1861      1864      1866      1861      1864      1867      1862      1861      1863
      1862      1861      1864      1863      1861      1864      1864      1867      1868
      1864      1867      1869      1864      1867      1870      1865      1864      1866
      1865      1864      1867      1866      1864      1867      1868      1867      1869
      1868      1867      1870      1869      1867      1870      1871      1874      1875
      1871      1874      1876      1871      1874      1877      1872      1871      1873
      1872      1871      1874      1873      1871      1874      1874      1877      1878
      1874      1877      1879      1874      1877      1880      1875      1874      1876
      1875      1874      1877      1876      1874      1877      1877      1880      1881
      1877      1880      1882      1877      1880      1883      1878      1877      1879
      1878      1877      1880      1879      1877      1880      1880      1883      1884
      1880      1883      1885      1880      1883      1886      1881      1880      1882
      1881      1880      1883      1882      1880      1883      1883      1886      1887
      1883      1886      1888      1883      1886      1889      1884      1883      1885
      1884      1883      1886      1885      1883      1886      1886      1889      1890
      1886      1889      1891      1886      1889      1892      1887      1886      1888
      1887      1886      1889      1888      1886      1889      1889      1892      1893
      1889      1892      1894      1889      1892      1895      1890      1889      1891
      1890      1889      1892      1891      1889      1892      1892      1895      1896
      1892      1895      1897      1892      1895      1898      1893      1892      1894
      1893      1892      1895      1894      1892      1895      1895      1898      1899
      1895      1898      1900      1895      1898      1901      1896      1895      1897
      1896      1895      1898      1897      1895      1898      1898      1901      1902
      1898      1901      1903      1898      1901      1904      1899      1898      1900
      1899      1898      1901      1900      1898      1901      1901      1904      1905
      1901      1904      1906      1901      1904      1907      1902      1901      1903
      1902      1901      1904      1903      1901      1904      1904      1907      1908
      1904      1907      1909      1904      1907      1910      1905      1904      1906
      1905      1904      1907      1906      1904      1907      1907      1910      1911
      1907      1910      1912      1907      1910      1913      1908      1907      1909
      1908      1907      1910      1909      1907      1910      1910      1913      1914
      1910      1913      1915      1910      1913      1916      1911      1910      1912
      1911      1910      1913      1912      1910      1913      1913      1916      1917
      1913      1916      1918      1913      1916      1919      1914      1913      1915
      1914      1913      1916      1915      1913      1916      1917      1916      1918
      1917      1916      1919      1918      1916      1919      1920      1924      1925
      1920      1924      1926      1920      1924      1927      1921      1920      1922
      1921      1920      1923      1921      1920      1924      1922      1920      1923
      1922      1920      1924      1923      1920      1924      1924      1927      1928
      1924      1927      1929      1924      1927      1933      1925      1924      1926
      1925      1924      1927      1926      1924      1927      1927      1933      1930
      1928      1927      1929      1928      1927      1933      1929      1927      1933
      1930      1934      1935      1931      1930      1932      1931      1930      1933
      1931      1930      1934      1932      1930      1933      1932      1930      1934
      1933      1930      1934      1934      1935      1936      1934      1935      1937
      1934      1935      1938      1935      1938      1939      1935      1938      1940
      1935      1938      1946      1936      1935      1937      1936      1935      1938
      1937      1935      1938      1938      1940      1941      1938      1946      1947
      1938      1946      1948      1938      1946      1949      1939      1938      1940
      1939      1938      1946      1940      1938      1946      1940      1941      1942
      1940      1941      1943      1941      1943      1944      1941      1943      1945
      1941      1943      1955      1942      1941      1943      1943      1955      1956
      1943      1955      1957      1943      1955      1958      1944      1943      1945
      1944      1943      1955      1945      1943      1955      1946      1949      1950
      1947      1946      1948      1947      1946      1949      1948      1946      1949
      1949      1950      1951      1949      1950      1952      1950      1952      1953
      1950      1952      1954      1950      1952      2002      1951      1950      1952
      1952      2002      2003      1952      2002      2004      1952      2002      2005
      1953      1952      1954      1953      1952      2002      1954      1952      2002
      1955      1958      1959      1955      1958      1960      1955      1958      1961
      1956      1955      1957      1956      1955      1958      1957      1955      1958
      1958      1961      1962      1958      1961      1963      1959      1958      1960
      1959      1958      1961      1960      1958      1961      1961      1963      1964
      1961      1963      1965      1962      1961      1963      1963      1965      1966
      1963      1965      1967      1963      1965      1968      1964      1963      1965
      1965      1968      1969      1965      1968      1970      1966      1965      1967
      1966      1965      1968      1967      1965      1968      1968      1970      1971
      1968      1970      1972      1969      1968      1970      1970      1972      1973
      1970      1972      1974      1970      1972      1975      1971      1970      1972
      1972      1975      1976      1972      1975      1977      1973      1972      1974
      1973      1972      1975      1974      1972      1975      1975      1977      1978
      1975      1977      1979      1976      1975      1977      1977      1979      1980
      1977      1979      1981      1977      1979      1982      1978      1977      1979
      1979      1982      1983      1979      1982      1984      1980      1979      1981
      1980      1979      1982      1981      1979      1982      1982      1984      1985
      1982      1984      1986      1983      1982      1984      1984      1986      1987
      1984      1986      1988      1984      1986      1989      1985      1984      1986
      1986      1989      1990      1986      1989      1991      1986      1989      1992
      1987      1986      1988      1987      1986      1989      1988      1986      1989
      1989      1992      1993      1989      1992      1994      1989      1992      1995
      1990      1989      1991      1990      1989      1992      1991      1989      1992
      1992      1995      1996      1992      1995      1997      1992      1995      1998
      1993      1992      1994      1993      1992      1995      1994      1992      1995
      1995      1998      1999      1995      1998      2000      1995      1998      2001
      1996      1995      1997      1996      1995      1998      1997      1995      1998
      1999      1998      2000      1999      1998      2001      2000      1998      2001
      2002      2005      2006      2002      2005      2007      2002      2005      2008
      2003      2002      2004      2003      2002      2005      2004      2002      2005
      2005      2008      2009      2005      2008      2010      2005      2008      2011
      2006      2005      2007      2006      2005      2008      2007      2005      2008
      2008      2011      2012      2008      2011      2013      2008      2011      2014
      2009      2008      2010      2009      2008      2011      2010      2008      2011
      2011      2014      2015      2011      2014      2016      2011      2014      2017
      2012      2011      2013      2012      2011      2014      2013      2011      2014
      2014      2017      2018      2014      2017      2019      2014      2017      2020
      2015      2014      2016      2015      2014      2017      2016      2014      2017
      2017      2020      2021      2017      2020      2022      2017      2020      2023
      2018      2017      2019      2018      2017      2020      2019      2017      2020
      2020      2023      2024      2020      2023      2025      2020      2023      2026
      2021      2020      2022      2021      2020      2023      2022      2020      2023
      2023      2026      2027      2023      2026      2028      2023      2026      2029
      2024      2023      2025      2024      2023      2026      2025      2023      2026
      2026      2029      2030      2026      2029      2031      2026      2029      2032
      2027      2026      2028      2027      2026      2029      2028      2026      2029
      2029      2032      2033      2029      2032      2034      2029      2032      2035
      2030      2029      2031      2030      2029      2032      2031      2029      2032
      2032      2035      2036      2032      2035      2037      2032      2035      2038
      2033      2032      2034      2033      2032      2035      2034      2032      2035
      2035      2038      2039      2035      2038      2040      2035      2038      2041
      2036      2035      2037      2036      2035      2038      2037      2035      2038
      2038      2041      2042      2038      2041      2043      2038      2041      2044
      2039      2038      2040      2039      2038      2041      2040      2038      2041
      2041      2044      2045      2041      2044      2046      2041      2044      2047
      2042      2041      2043      2042      2041      2044      2043      2041      2044
      2044      2047      2048      2044      2047      2049      2044      2047      2050
      2045      2044      2046      2045      2044      2047      2046      2044      2047
      2048      2047      2049      2048      2047      2050      2049      2047      2050
      2051      2053      2054      2051      2055      2056      2051      2055      2057
      2051      2055      2058      2051      2097      2094      2051      2097      2098
      2051      2097      2099      2052      2051      2053      2052      2051      2055
      2052      2051      2097      2053      2051      2055      2053      2051      2097
      2055      2051      2097      2055      2058      2059      2055      2058      2089
      2056      2055      2057      2056      2055      2058      2057      2055      2058
      2058      2059      2060      2058      2059      2061      2058      2089      2087
      2058      2089      2090      2058      2089      2094      2059      2058      2089
      2059      2061      2062      2059      2061      2063      2059      2061      2064
      2060      2059      2061      2061      2064      2065      2061      2064      2066
      2061      2064      2087      2062      2061      2063      2062      2061      2064
      2063      2061      2064      2064      2066      2067      2064      2066      2068
      2064      2066      2076      2064      2087      2084      2064      2087      2088
      2064      2087      2089      2065      2064      2066      2065      2064      2087
      2066      2064      2087      2066      2068      2069      2066      2068      2070
      2066      2068      2071      2066      2076      2074      2066      2076      2077
      2066      2076      2081      2067      2066      2068      2067      2066      2076
      2068      2066      2076      2068      2071      2072      2068      2071      2073
      2068      2071      2074      2069      2068      2070      2069      2068      2071
      2070      2068      2071      2071      2074      2075      2071      2074      2076
      2071      2074      2100      2072      2071      2073      2072      2071      2074
      2073      2071      2074      2074      2076      2077      2074      2076      2081
      2074      2100      2101      2074      2100      2102      2074      2100      2106
      2075      2074      2076      2075      2074      2100      2076      2074      2100
      2076      2077      2078      2076      2077      2079      2076      2077      2080
      2076      2081      2082      2076      2081      2083      2076      2081      2084
      2077      2076      2081      2078      2077      2079      2078      2077      2080
      2079      2077      2080      2081      2084      2085      2081      2084      2086
      2081      2084      2087      2082      2081      2083      2082      2081      2084
      2083      2081      2084      2084      2087      2088      2084      2087      2089
      2085      2084      2086      2085      2084      2087      2086      2084      2087
      2087      2089      2090      2087      2089      2094      2088      2087      2089
      2089      2090      2091      2089      2090      2092      2089      2090      2093
      2089      2094      2095      2089      2094      2096      2089      2094      2097
      2090      2089      2094      2091      2090      2092      2091      2090      2093
      2092      2090      2093      2094      2097      2098      2094      2097      2099
      2095      2094      2096      2095      2094      2097      2096      2094      2097
      2098      2097      2099      2100      2102      2103      2100      2102      2104
      2100      2102      2105      2100      2106      2107      2100      2106      2108
      2100      2106      2109      2101      2100      2102      2101      2100      2106
      2102      2100      2106      2103      2102      2104      2103      2102      2105
      2104      2102      2105      2106      2109      2110      2106      2109      2111
      2106      2109      2112      2107      2106      2108      2107      2106      2109
      2108      2106      2109      2109      2112      2113      2109      2112      2114
      2109      2112      2115      2110      2109      2111      2110      2109      2112
      2111      2109      2112      2112      2115      2116      2112      2115      2117
      2112      2115      2121      2113      2112      2114      2113      2112      2115
      2114      2112      2115      2115      2117      2118      2115      2117      2119
      2115      2117      2120      2115      2121      2122      2115      2121      2123
      2115      2121      2124      2116      2115      2117      2116      2115      2121
      2117      2115      2121      2118      2117      2119      2118      2117      2120
      2119      2117      2120      2122      2121      2123      2122      2121      2124
      2123      2121      2124      2125      2127      2128      2125      2129      2130
      2125      2129      2131      2125      2129      2132      2125      2171      2168
      2125      2171      2172      2125      2171      2173      2126      2125      2127
      2126      2125      2129      2126      2125      2171      2127      2125      2129
      2127      2125      2171      2129      2125      2171      2129      2132      2133
      2129      2132      2163      2130      2129      2131      2130      2129      2132
      2131      2129      2132      2132      2133      2134      2132      2133      2135
      2132      2163      2161      2132      2163      2164      2132      2163      2168
      2133      2132      2163      2133      2135      2136      2133      2135      2137
      2133      2135      2138      2134      2133      2135      2135      2138      2139
      2135      2138      2140      2135      2138      2161      2136      2135      2137
      2136      2135      2138      2137      2135      2138      2138      2140      2141
      2138      2140      2142      2138      2140      2150      2138      2161      2158
      2138      2161      2162      2138      2161      2163      2139      2138      2140
      2139      2138      2161      2140      2138      2161      2140      2142      2143
      2140      2142      2144      2140      2142      2145      2140      2150      2148
      2140      2150      2151      2140      2150      2155      2141      2140      2142
      2141      2140      2150      2142      2140      2150      2142      2145      2146
      2142      2145      2147      2142      2145      2148      2143      2142      2144
      2143      2142      2145      2144      2142      2145      2145      2148      2149
      2145      2148      2150      2145      2148      2174      2146      2145      2147
      2146      2145      2148      2147      2145      2148      2148      2150      2151
      2148      2150      2155      2148      2174      2175      2148      2174      2176
      2148      2174      2180      2149      2148      2150      2149      2148      2174
      2150      2148      2174      2150      2151      2152      2150      2151      2153
      2150      2151      2154      2150      2155      2156      2150      2155      2157
      2150      2155      2158      2151      2150      2155      2152      2151      2153
      2152      2151      2154      2153      2151      2154      2155      2158      2159
      2155      2158      2160      2155      2158      2161      2156      2155      2157
      2156      2155      2158      2157      2155      2158      2158      2161      2162
      2158      2161      2163      2159      2158      2160      2159      2158      2161
      2160      2158      2161      2161      2163      2164      2161      2163      2168
      2162      2161      2163      2163      2164      2165      2163      2164      2166
      2163      2164      2167      2163      2168      2169      2163      2168      2170
      2163      2168      2171      2164      2163      2168      2165      2164      2166
      2165      2164      2167      2166      2164      2167      2168      2171      2172
      2168      2171      2173      2169      2168      2170      2169      2168      2171
      2170      2168      2171      2172      2171      2173      2174      2176      2177
      2174      2176      2178      2174      2176      2179      2174      2180      2181
      2174      2180      2182      2174      2180      2183      2175      2174      2176
      2175      2174      2180      2176      2174      2180      2177      2176      2178
      2177      2176      2179      2178      2176      2179      2180      2183      2184
      2180      2183      2185      2180      2183      2186      2181      2180      2182
      2181      2180      2183      2182      2180      2183      2183      2186      2187
      2183      2186      2188      2183      2186      2189      2184      2183      2185
      2184      2183      2186      2185      2183      2186      2186      2189      2190
      2186      2189      2191      2186      2189      2195      2187      2186      2188
      2187      2186      2189      2188      2186      2189      2189      2191      2192
      2189      2191      2193      2189      2191      2194      2189      2195      2196
      2189      2195      2197      2189      2195      2198      2190      2189      2191
      2190      2189      2195      2191      2189      2195      2192      2191      2193
      2192      2191      2194      2193      2191      2194      2196      2195      2197
      2196      2195      2198      2197      2195      2198      2199      2200      2201
      2199      2200      2202      2199      2200      2203      2199      2204      2205
      2199      2204      2206      2199      2204      2207      2199      2208      2209
      2199      2208      2210      2199      2208      2211      2199      2212      2213
      2199      2212      2214      2199      2212      2215      2200      2199      2204
      2200      2199      2208      2200      2199      2212      2201      2200      2202
      2201      2200      2203      2202      2200      2203      2204      2199      2208
      2204      2199      2212      2205      2204      2206      2205      2204      2207
      2206      2204      2207      2208      2199      2212      2209      2208      2210
      2209      2208      2211      2210      2208      2211      2212      2215      2216
      2212      2215      2217      2212      2215      2222      2213      2212      2214
      2213      2212      2215      2214      2212      2215      2215      2222      2218
      2216      2215      2217      2216      2215      2222      2217      2215      2222
      2218      2221      2223      2219      2218      2220      2219      2218      2221
      2219      2218      2222      2220      2218      2221      2220      2218      2222
      2221      2218      2222      2221      2223      2224      2221      2223      2225
      2221      2223      2228      2223      2228      2226      2223      2228      2229
      2223      2228      2230      2224      2223      2225      2224      2223      2228
      2225      2223      2228      2226      2228      2229      2226      2228      2230
      2226      2278      2279      2226      2278      2280      2227      2226      2228
      2227      2226      2278      2228      2226      2278      2228      2230      2231
      2228      2230      2232      2228      2230      2234      2229      2228      2230
      2230      2232      2233      2230      2234      2235      2230      2234      2236
      2231      2230      2232      2231      2230      2234      2232      2230      2234
      2234      2236      2237      2234      2236      2238      2235      2234      2236
      2236      2238      2239      2236      2238      2240      2236      2238      2241
      2237      2236      2238      2238      2241      2242      2238      2241      2243
      2238      2241      2244      2239      2238      2240      2239      2238      2241
      2240      2238      2241      2241      2244      2245      2241      2244      2246
      2241      2244      2247      2242      2241      2243      2242      2241      2244
      2243      2241      2244      2244      2247      2248      2244      2247      2249
      2244      2247      2250      2245      2244      2246      2245      2244      2247
      2246      2244      2247      2247      2250      2251      2247      2250      2252
      2247      2250      2253      2248      2247      2249      2248      2247      2250
      2249      2247      2250      2250      2253      2254      2250      2253      2255
      2250      2253      2256      2251      2250      2252      2251      2250      2253
      2252      2250      2253      2253      2256      2257      2253      2256      2258
      2253      2256      2259      2254      2253      2255      2254      2253      2256
      2255      2253      2256      2256      2259      2260      2256      2259      2261
      2256      2259      2262      2257      2256      2258      2257      2256      2259
      2258      2256      2259      2259      2262      2263      2259      2262      2264
      2259      2262      2265      2260      2259      2261      2260      2259      2262
      2261      2259      2262      2262      2265      2266      2262      2265      2267
      2262      2265      2268      2263      2262      2264      2263      2262      2265
      2264      2262      2265      2265      2268      2269      2265      2268      2270
      2265      2268      2271      2266      2265      2267      2266      2265      2268
      2267      2265      2268      2268      2271      2272      2268      2271      2273
      2268      2271      2274      2269      2268      2270      2269      2268      2271
      2270      2268      2271      2271      2274      2275      2271      2274      2276
      2271      2274      2277      2272      2271      2273      2272      2271      2274
      2273      2271      2274      2275      2274      2276      2275      2274      2277
      2276      2274      2277      2278      2280      2281      2278      2280      2282
      2278      2280      2283      2279      2278      2280      2280      2283      2284
      2280      2283      2285      2280      2283      2286      2281      2280      2282
      2281      2280      2283      2282      2280      2283      2283      2286      2287
      2283      2286      2288      2283      2286      2289      2284      2283      2285
      2284      2283      2286      2285      2283      2286      2286      2289      2290
      2286      2289      2291      2286      2289      2292      2287      2286      2288
      2287      2286      2289      2288      2286      2289      2289      2292      2293
      2289      2292      2294      2289      2292      2295      2290      2289      2291
      2290      2289      2292      2291      2289      2292      2292      2295      2296
      2292      2295      2297      2292      2295      2298      2293      2292      2294
      2293      2292      2295      2294      2292      2295      2295      2298      2299
      2295      2298      2300      2295      2298      2301      2296      2295      2297
      2296      2295      2298      2297      2295      2298      2298      2301      2302
      2298      2301      2303      2299      2298      2300      2299      2298      2301
      2300      2298      2301      2301      2303      2304      2301      2303      2305
      2302      2301      2303      2303      2305      2306      2303      2305      2307
      2303      2305      2308      2304      2303      2305      2305      2308      2309
      2305      2308      2310      2305      2308      2311      2306      2305      2307
      2306      2305      2308      2307      2305      2308      2308      2311      2312
      2308      2311      2313      2308      2311      2314      2309      2308      2310
      2309      2308      2311      2310      2308      2311      2311      2314      2315
      2311      2314      2316      2311      2314      2317      2312      2311      2313
      2312      2311      2314      2313      2311      2314      2314      2317      2318
      2314      2317      2319      2314      2317      2320      2315      2314      2316
      2315      2314      2317      2316      2314      2317      2317      2320      2321
      2317      2320      2322      2317      2320      2323      2318      2317      2319
      2318      2317      2320      2319      2317      2320      2320      2323      2324
      2320      2323      2325      2320      2323      2326      2321      2320      2322
      2321      2320      2323      2322      2320      2323      2323      2326      2327
      2323      2326      2328      2323      2326      2329      2324      2323      2325
      2324      2323      2326      2325      2323      2326      2327      2326      2328
      2327      2326      2329      2328      2326      2329      2330      2331      2332
      2330      2331      2333      2330      2331      2346      2330      2334      2335
      2330      2334      2336      2330      2334      2337      2330      2338      2339
      2330      2338      2340      2330      2338      2341      2330      2342      2343
      2330      2342      2344      2330      2342      2345      2331      2330      2334
      2331      2330      2338      2331      2330      2342      2331      2346      2347
      2331      2346      2348      2331      2346      2352      2332      2331      2333
      2332      2331      2346      2333      2331      2346      2334      2330      2338
      2334      2330      2342      2335      2334      2336      2335      2334      2337
      2336      2334      2337      2338      2330      2342      2339      2338      2340
      2339      2338      2341      2340      2338      2341      2343      2342      2344
      2343      2342      2345      2344      2342      2345      2346      2352      2349
      2347      2346      2348      2347      2346      2352      2348      2346      2352
      2349      2353      2354      2350      2349      2351      2350      2349      2352
      2350      2349      2353      2351      2349      2352      2351      2349      2353
      2352      2349      2353      2353      2354      2355      2353      2354      2356
      2353      2354      2357      2354      2357      2358      2354      2357      2359
      2354      2357      2365      2355      2354      2356      2355      2354      2357
      2356      2354      2357      2357      2359      2360      2357      2365      2366
      2357      2365      2367      2357      2365      2368      2358      2357      2359
      2358      2357      2365      2359      2357      2365      2359      2360      2361
      2359      2360      2362      2360      2362      2363      2360      2362      2364
      2360      2362      2374      2361      2360      2362      2362      2374      2375
      2362      2374      2376      2362      2374      2377      2363      2362      2364
      2363      2362      2374      2364      2362      2374      2365      2368      2369
      2366      2365      2367      2366      2365      2368      2367      2365      2368
      2368      2369      2370      2368      2369      2371      2369      2371      2372
      2369      2371      2373      2369      2371      2421      2370      2369      2371
      2371      2421      2422      2371      2421      2423      2371      2421      2424
      2372      2371      2373      2372      2371      2421      2373      2371      2421
      2374      2377      2378      2374      2377      2379      2374      2377      2380
      2375      2374      2376      2375      2374      2377      2376      2374      2377
      2377      2380      2381      2377      2380      2382      2377      2380      2383
      2378      2377      2379      2378      2377      2380      2379      2377      2380
      2380      2383      2384      2380      2383      2385      2380      2383      2386
      2381      2380      2382      2381      2380      2383      2382      2380      2383
      2383      2386      2387      2383      2386      2388      2383      2386      2389
      2384      2383      2385      2384      2383      2386      2385      2383      2386
      2386      2389      2390      2386      2389      2391      2386      2389      2392
      2387      2386      2388      2387      2386      2389      2388      2386      2389
      2389      2392      2393      2389      2392      2394      2390      2389      2391
      2390      2389      2392      2391      2389      2392      2392      2394      2395
      2392      2394      2396      2393      2392      2394      2394      2396      2397
      2394      2396      2398      2394      2396      2399      2395      2394      2396
      2396      2399      2400      2396      2399      2401      2396      2399      2402
      2397      2396      2398      2397      2396      2399      2398      2396      2399
      2399      2402      2403      2399      2402      2404      2399      2402      2405
      2400      2399      2401      2400      2399      2402      2401      2399      2402
      2402      2405      2406      2402      2405      2407      2402      2405      2408
      2403      2402      2404      2403      2402      2405      2404      2402      2405
      2405      2408      2409      2405      2408      2410      2405      2408      2411
      2406      2405      2407      2406      2405      2408      2407      2405      2408
      2408      2411      2412      2408      2411      2413      2408      2411      2414
      2409      2408      2410      2409      2408      2411      2410      2408      2411
      2411      2414      2415      2411      2414      2416      2411      2414      2417
      2412      2411      2413      2412      2411      2414      2413      2411      2414
      2414      2417      2418      2414      2417      2419      2414      2417      2420
      2415      2414      2416      2415      2414      2417      2416      2414      2417
      2418      2417      2419      2418      2417      2420      2419      2417      2420
      2421      2424      2425      2421      2424      2426      2421      2424      2427
      2422      2421      2423      2422      2421      2424      2423      2421      2424
      2424      2427      2428      2424      2427      2429      2424      2427      2430
      2425      2424      2426      2425      2424      2427      2426      2424      2427
      2427      2430      2431      2427      2430      2432      2427      2430      2433
      2428      2427      2429      2428      2427      2430      2429      2427      2430
      2430      2433      2434      2430      2433      2435      2430      2433      2436
      2431      2430      2432      2431      2430      2433      2432      2430      2433
      2433      2436      2437      2433      2436      2438      2433      2436      2439
      2434      2433      2435      2434      2433      2436      2435      2433      2436
      2436      2439      2440      2436      2439      2441      2436      2439      2442
      2437      2436      2438      2437      2436      2439      2438      2436      2439
      2439      2442      2443      2439      2442      2444      2439      2442      2445
      2440      2439      2441      2440      2439      2442      2441      2439      2442
      2442      2445      2446      2442      2445      2447      2442      2445      2448
      2443      2442      2444      2443      2442      2445      2444      2442      2445
      2445      2448      2449      2445      2448      2450      2445      2448      2451
      2446      2445      2447      2446      2445      2448      2447      2445      2448
      2448      2451      2452      2448      2451      2453      2448      2451      2454
      2449      2448      2450      2449      2448      2451      2450      2448      2451
      2451      2454      2455      2451      2454      2456      2451      2454      2457
      2452      2451      2453      2452      2451      2454      2453      2451      2454
      2454      2457      2458      2454      2457      2459      2454      2457      2460
      2455      2454      2456      2455      2454      2457      2456      2454      2457
      2457      2460      2461      2457      2460      2462      2457      2460      2463
      2458      2457      2459      2458      2457      2460      2459      2457      2460
      2461      2460      2462      2461      2460      2463      2462      2460      2463
      2464      2468      2469      2464      2468      2470      2464      2468      2473
      2465      2464      2466      2465      2464      2467      2465      2464      2468
      2466      2464      2467      2466      2464      2468      2467      2464      2468
      2468      2470      2471      2468      2470      2472      2468      2473      2474
      2468      2473      2475      2468      2473      2479      2469      2468      2470
      2469      2468      2473      2470      2468      2473      2471      2470      2472
      2473      2479      2476      2474      2473      2475      2474      2473      2479
      2475      2473      2479      2476      2480      2481      2477      2476      2478
      2477      2476      2479      2477      2476      2480      2478      2476      2479
      2478      2476      2480      2479      2476      2480      2480      2481      2482
      2480      2481      2483      2480      2481      2484      2481      2484      2485
      2481      2484      2486      2481      2484      2492      2482      2481      2483
      2482      2481      2484      2483      2481      2484      2484      2486      2487
      2484      2492      2493      2484      2492      2494      2484      2492      2495
      2485      2484      2486      2485      2484      2492      2486      2484      2492
      2486      2487      2488      2486      2487      2489      2487      2489      2490
      2487      2489      2491      2487      2489      2501      2488      2487      2489
      2489      2501      2502      2489      2501      2503      2489      2501      2504
      2490      2489      2491      2490      2489      2501      2491      2489      2501
      2492      2495      2496      2493      2492      2494      2493      2492      2495
      2494      2492      2495      2495      2496      2497      2495      2496      2498
      2496      2498      2499      2496      2498      2500      2496      2498      2548
      2497      2496      2498      2498      2548      2549      2498      2548      2550
      2498      2548      2551      2499      2498      2500      2499      2498      2548
      2500      2498      2548      2501      2504      2505      2501      2504      2506
      2501      2504      2507      2502      2501      2503      2502      2501      2504
      2503      2501      2504      2504      2507      2508      2504      2507      2509
      2505      2504      2506      2505      2504      2507      2506      2504      2507
      2507      2509      2510      2507      2509      2511      2508      2507      2509
      2509      2511      2512      2509      2511      2513      2509      2511      2514
      2510      2509      2511      2511      2514      2515      2511      2514      2516
      2512      2511      2513      2512      2511      2514      2513      2511      2514
      2514      2516      2517      2514      2516      2518      2515      2514      2516
      2516      2518      2519      2516      2518      2520      2516      2518      2521
      2517      2516      2518      2518      2521      2522      2518      2521      2523
      2519      2518      2520      2519      2518      2521      2520      2518      2521
      2521      2523      2524      2521      2523      2525      2522      2521      2523
      2523      2525      2526      2523      2525      2527      2523      2525      2528
      2524      2523      2525      2525      2528      2529      2525      2528      2530
      2526      2525      2527      2526      2525      2528      2527      2525      2528
      2528      2530      2531      2528      2530      2532      2529      2528      2530
      2530      2532      2533      2530      2532      2534      2530      2532      2535
      2531      2530      2532      2532      2535      2536      2532      2535      2537
      2532      2535      2538      2533      2532      2534      2533      2532      2535
      2534      2532      2535      2535      2538      2539      2535      2538      2540
      2535      2538      2541      2536      2535      2537      2536      2535      2538
      2537      2535      2538      2538      2541      2542      2538      2541      2543
      2538      2541      2544      2539      2538      2540      2539      2538      2541
      2540      2538      2541      2541      2544      2545      2541      2544      2546
      2541      2544      2547      2542      2541      2543      2542      2541      2544
      2543      2541      2544      2545      2544      2546      2545      2544      2547
      2546      2544      2547      2548      2551      2552      2548      2551      2553
      2548      2551      2554      2549      2548      2550      2549      2548      2551
      2550      2548      2551      2551      2554      2555      2551      2554      2556
      2551      2554      2557      2552      2551      2553      2552      2551      2554
      2553      2551      2554      2554      2557      2558      2554      2557      2559
      2554      2557      2560      2555      2554      2556      2555      2554      2557
      2556      2554      2557      2557      2560      2561      2557      2560      2562
      2557      2560      2563      2558      2557      2559      2558      2557      2560
      2559      2557      2560      2560      2563      2564      2560      2563      2565
      2560      2563      2566      2561      2560      2562      2561      2560      2563
      2562      2560      2563      2563      2566      2567      2563      2566      2568
      2563      2566      2569      2564      2563      2565      2564      2563      2566
      2565      2563      2566      2566      2569      2570      2566      2569      2571
      2566      2569      2572      2567      2566      2568      2567      2566      2569
      2568      2566      2569      2569      2572      2573      2569      2572      2574
      2569      2572      2575      2570      2569      2571      2570      2569      2572
      2571      2569      2572      2572      2575      2576      2572      2575      2577
      2572      2575      2578      2573      2572      2574      2573      2572      2575
      2574      2572      2575      2575      2578      2579      2575      2578      2580
      2575      2578      2581      2576      2575      2577      2576      2575      2578
      2577      2575      2578      2578      2581      2582      2578      2581      2583
      2578      2581      2584      2579      2578      2580      2579      2578      2581
      2580      2578      2581      2581      2584      2585      2581      2584      2586
      2581      2584      2587      2582      2581      2583      2582      2581      2584
      2583      2581      2584      2584      2587      2588      2584      2587      2589
      2584      2587      2590      2585      2584      2586      2585      2584      2587
      2586      2584      2587      2587      2590      2591      2587      2590      2592
      2587      2590      2593      2588      2587      2589      2588      2587      2590
      2589      2587      2590      2590      2593      2594      2590      2593      2595
      2590      2593      2596      2591      2590      2592      2591      2590      2593
      2592      2590      2593      2594      2593      2595      2594      2593      2596
      2595      2593      2596      2597      2598      2599      2597      2598      2600
      2597      2598      2601      2597      2602      2603      2597      2602      2604
      2597      2602      2605      2597      2606      2607      2597      2606      2608
      2597      2606      2609      2597      2610      2611      2597      2610      2612
      2597      2610      2613      2598      2597      2602      2598      2597      2606
      2598      2597      2610      2599      2598      2600      2599      2598      2601
      2600      2598      2601      2602      2597      2606      2602      2597      2610
      2603      2602      2604      2603      2602      2605      2604      2602      2605
      2606      2597      2610      2607      2606      2608      2607      2606      2609
      2608      2606      2609      2610      2613      2614      2610      2613      2615
      2610      2613      2620      2611      2610      2612      2611      2610      2613
      2612      2610      2613      2613      2620      2616      2614      2613      2615
      2614      2613      2620      2615      2613      2620      2616      2619      2621
      2617      2616      2618      2617      2616      2619      2617      2616      2620
      2618      2616      2619      2618      2616      2620      2619      2616      2620
      2619      2621      2622      2619      2621      2623      2619      2621      2626
      2621      2626      2624      2621      2626      2627      2621      2626      2628
      2622      2621      2623      2622      2621      2626      2623      2621      2626
      2624      2626      2627      2624      2626      2628      2624      2676      2677
      2624      2676      2678      2625      2624      2626      2625      2624      2676
      2626      2624      2676      2626      2628      2629      2626      2628      2630
      2626      2628      2632      2627      2626      2628      2628      2630      2631
      2628      2632      2633      2628      2632      2634      2629      2628      2630
      2629      2628      2632      2630      2628      2632      2632      2634      2635
      2632      2634      2636      2633      2632      2634      2634      2636      2637
      2634      2636      2638      2634      2636      2639      2635      2634      2636
      2636      2639      2640      2636      2639      2641      2636      2639      2642
      2637      2636      2638      2637      2636      2639      2638      2636      2639
      2639      2642      2643      2639      2642      2644      2639      2642      2645
      2640      2639      2641      2640      2639      2642      2641      2639      2642
      2642      2645      2646      2642      2645      2647      2642      2645      2648
      2643      2642      2644      2643      2642      2645      2644      2642      2645
      2645      2648      2649      2645      2648      2650      2645      2648      2651
      2646      2645      2647      2646      2645      2648      2647      2645      2648
      2648      2651      2652      2648      2651      2653      2648      2651      2654
      2649      2648      2650      2649      2648      2651      2650      2648      2651
      2651      2654      2655      2651      2654      2656      2651      2654      2657
      2652      2651      2653      2652      2651      2654      2653      2651      2654
      2654      2657      2658      2654      2657      2659      2654      2657      2660
      2655      2654      2656      2655      2654      2657      2656      2654      2657
      2657      2660      2661      2657      2660      2662      2657      2660      2663
      2658      2657      2659      2658      2657      2660      2659      2657      2660
      2660      2663      2664      2660      2663      2665      2660      2663      2666
      2661      2660      2662      2661      2660      2663      2662      2660      2663
      2663      2666      2667      2663      2666      2668      2663      2666      2669
      2664      2663      2665      2664      2663      2666      2665      2663      2666
      2666      2669      2670      2666      2669      2671      2666      2669      2672
      2667      2666      2668      2667      2666      2669      2668      2666      2669
      2669      2672      2673      2669      2672      2674      2669      2672      2675
      2670      2669      2671      2670      2669      2672      2671      2669      2672
      2673      2672      2674      2673      2672      2675      2674      2672      2675
      2676      2678      2679      2676      2678      2680      2676      2678      2681
      2677      2676      2678      2678      2681      2682      2678      2681      2683
      2678      2681      2684      2679      2678      2680      2679      2678      2681
      2680      2678      2681      2681      2684      2685      2681      2684      2686
      2681      2684      2687      2682      2681      2683      2682      2681      2684
      2683      2681      2684      2684      2687      2688      2684      2687      2689
      2684      2687      2690      2685      2684      2686      2685      2684      2687
      2686      2684      2687      2687      2690      2691      2687      2690      2692
      2687      2690      2693      2688      2687      2689      2688      2687      2690
      2689      2687      2690      2690      2693      2694      2690      2693      2695
      2690      2693      2696      2691      2690      2692      2691      2690      2693
      2692      2690      2693      2693      2696      2697      2693      2696      2698
      2693      2696      2699      2694      2693      2695      2694      2693      2696
      2695      2693      2696      2696      2699      2700      2696      2699      2701
      2697      2696      2698      2697      2696      2699      2698      2696      2699
      2699      2701      2702      2699      2701      2703      2700      2699      2701
      2701      2703      2704      2701      2703      2705      2701      2703      2706
      2702      2701      2703      2703      2706      2707      2703      2706      2708
      2703      2706      2709      2704      2703      2705      2704      2703      2706
      2705      2703      2706      2706      2709      2710      2706      2709      2711
      2706      2709      2712      2707      2706      2708      2707      2706      2709
      2708      2706      2709      2709      2712      2713      2709      2712      2714
      2709      2712      2715      2710      2709      2711      2710      2709      2712
      2711      2709      2712      2712      2715      2716      2712      2715      2717
      2712      2715      2718      2713      2712      2714      2713      2712      2715
      2714      2712      2715      2715      2718      2719      2715      2718      2720
      2715      2718      2721      2716      2715      2717      2716      2715      2718
      2717      2715      2718      2718      2721      2722      2718      2721      2723
      2718      2721      2724      2719      2718      2720      2719      2718      2721
      2720      2718      2721      2721      2724      2725      2721      2724      2726
      2721      2724      2727      2722      2721      2723      2722      2721      2724
      2723      2721      2724      2725      2724      2726      2725      2724      2727
      2726      2724      2727      2728      2732      2733      2728      2732      2734
      2728      2732      2735      2729      2728      2730      2729      2728      2731
      2729      2728      2732      2730      2728      2731      2730      2728      2732
      2731      2728      2732      2732      2735      2736      2732      2735      2737
      2732      2735      2741      2733      2732      2734      2733      2732      2735
      2734      2732      2735      2735      2741      2738      2736      2735      2737
      2736      2735      2741      2737      2735      2741      2738      2742      2743
      2739      2738      2740      2739      2738      2741      2739      2738      2742
      2740      2738      2741      2740      2738      2742      2741      2738      2742
      2742      2743      2744      2742      2743      2745      2742      2743      2746
      2743      2746      2747      2743      2746      2748      2743      2746      2754
      2744      2743      2745      2744      2743      2746      2745      2743      2746
      2746      2748      2749      2746      2754      2755      2746      2754      2756
      2746      2754      2757      2747      2746      2748      2747      2746      2754
      2748      2746      2754      2748      2749      2750      2748      2749      2751
      2749      2751      2752      2749      2751      2753      2749      2751      2763
      2750      2749      2751      2751      2763      2764      2751      2763      2765
      2751      2763      2766      2752      2751      2753      2752      2751      2763
      2753      2751      2763      2754      2757      2758      2755      2754      2756
      2755      2754      2757      2756      2754      2757      2757      2758      2759
      2757      2758      2760      2758      2760      2761      2758      2760      2762
      2758      2760      2810      2759      2758      2760      2760      2810      2811
      2760      2810      2812      2760      2810      2813      2761      2760      2762
      2761      2760      2810      2762      2760      2810      2763      2766      2767
      2763      2766      2768      2763      2766      2769      2764      2763      2765
      2764      2763      2766      2765      2763      2766      2766      2769      2770
      2766      2769      2771      2767      2766      2768      2767      2766      2769
      2768      2766      2769      2769      2771      2772      2769      2771      2773
      2770      2769      2771      2771      2773      2774      2771      2773      2775
      2771      2773      2776      2772      2771      2773      2773      2776      2777
      2773      2776      2778      2774      2773      2775      2774      2773      2776
      2775      2773      2776      2776      2778      2779      2776      2778      2780
      2777      2776      2778      2778      2780      2781      2778      2780      2782
      2778      2780      2783      2779      2778      2780      2780      2783      2784
      2780      2783      2785      2781      2780      2782      2781      2780      2783
      2782      2780      2783      2783      2785      2786      2783      2785      2787
      2784      2783      2785      2785      2787      2788      2785      2787      2789
      2785      2787      2790      2786      2785      2787      2787      2790      2791
      2787      2790      2792      2788      2787      2789      2788      2787      2790
      2789      2787      2790      2790      2792      2793      2790      2792      2794
      2791      2790      2792      2792      2794      2795      2792      2794      2796
      2792      2794      2797      2793      2792      2794      2794      2797      2798
      2794      2797      2799      2794      2797      2800      2795      2794      2796
      2795      2794      2797      2796      2794      2797      2797      2800      2801
      2797      2800      2802      2797      2800      2803      2798      2797      2799
      2798      2797      2800      2799      2797      2800      2800      2803      2804
      2800      2803      2805      2800      2803      2806      2801      2800      2802
      2801      2800      2803      2802      2800      2803      2803      2806      2807
      2803      2806      2808      2803      2806      2809      2804      2803      2805
      2804      2803      2806      2805      2803      2806      2807      2806      2808
      2807      2806      2809      2808      2806      2809      2810      2813      2814
      2810      2813      2815      2810      2813      2816      2811      2810      2812
      2811      2810      2813      2812      2810      2813      2813      2816      2817
      2813      2816      2818      2813      2816      2819      2814      2813      2815
      2814      2813      2816      2815      2813      2816      2816      2819      2820
      2816      2819      2821      2816      2819      2822      2817      2816      2818
      2817      2816      2819      2818      2816      2819      2819      2822      2823
      2819      2822      2824      2819      2822      2825      2820      2819      2821
      2820      2819      2822      2821      2819      2822      2822      2825      2826
      2822      2825      2827      2822      2825      2828      2823      2822      2824
      2823      2822      2825      2824      2822      2825      2825      2828      2829
      2825      2828      2830      2825      2828      2831      2826      2825      2827
      2826      2825      2828      2827      2825      2828      2828      2831      2832
      2828      2831      2833      2828      2831      2834      2829      2828      2830
      2829      2828      2831      2830      2828      2831      2831      2834      2835
      2831      2834      2836      2831      2834      2837      2832      2831      2833
      2832      2831      2834      2833      2831      2834      2834      2837      2838
      2834      2837      2839      2834      2837      2840      2835      2834      2836
      2835      2834      2837      2836      2834      2837      2837      2840      2841
      2837      2840      2842      2837      2840      2843      2838      2837      2839
      2838      2837      2840      2839      2837      2840      2840      2843      2844
      2840      2843      2845      2840      2843      2846      2841      2840      2842
      2841      2840      2843      2842      2840      2843      2843      2846      2847
      2843      2846      2848      2843      2846      2849      2844      2843      2845
      2844      2843      2846      2845      2843      2846      2846      2849      2850
      2846      2849      2851      2846      2849      2852      2847      2846      2848
      2847      2846      2849      2848      2846      2849      2849      2852      2853
      2849      2852      2854      2849      2852      2855      2850      2849      2851
      2850      2849      2852      2851      2849      2852      2852      2855      2856
      2852      2855      2857      2852      2855      2858      2853      2852      2854
      2853      2852      2855      2854      2852      2855      2856      2855      2857
      2856      2855      2858      2857      2855      2858      2859      2863      2864
      2859      2863      2865      2859      2863      2866      2860      2859      2861
      2860      2859      2862      2860      2859      2863      2861      2859      2862
      2861      2859      2863      2862      2859      2863      2863      2866      2867
      2863      2866      2868      2863      2866      2872      2864      2863      2865
      2864      2863      2866      2865      2863      2866      2866      2872      2869
      2867      2866      2868      2867      2866      2872      2868      2866      2872
      2869      2873      2874      2870      2869      2871      2870      2869      2872
      2870      2869      2873      2871      2869      2872      2871      2869      2873
      2872      2869      2873      2873      2874      2875      2873      2874      2876
      2873      2874      2877      2874      2877      2878      2874      2877      2879
      2874      2877      2885      2875      2874      2876      2875      2874      2877
      2876      2874      2877      2877      2879      2880      2877      2885      2886
      2877      2885      2887      2877      2885      2888      2878      2877      2879
      2878      2877      2885      2879      2877      2885      2879      2880      2881
      2879      2880      2882      2880      2882      2883      2880      2882      2884
      2880      2882      2894      2881      2880      2882      2882      2894      2895
      2882      2894      2896      2882      2894      2897      2883      2882      2884
      2883      2882      2894      2884      2882      2894      2885      2888      2889
      2886      2885      2887      2886      2885      2888      2887      2885      2888
      2888      2889      2890      2888      2889      2891      2889      2891      2892
      2889      2891      2893      2889      2891      2941      2890      2889      2891
      2891      2941      2942      2891      2941      2943      2891      2941      2944
      2892      2891      2893      2892      2891      2941      2893      2891      2941
      2894      2897      2898      2894      2897      2899      2894      2897      2900
      2895      2894      2896      2895      2894      2897      2896      2894      2897
      2897      2900      2901      2897      2900      2902      2897      2900      2903
      2898      2897      2899      2898      2897      2900      2899      2897      2900
      2900      2903      2904      2900      2903      2905      2900      2903      2906
      2901      2900      2902      2901      2900      2903      2902      2900      2903
      2903      2906      2907      2903      2906      2908      2903      2906      2909
      2904      2903      2905      2904      2903      2906      2905      2903      2906
      2906      2909      2910      2906      2909      2911      2906      2909      2912
      2907      2906      2908      2907      2906      2909      2908      2906      2909
      2909      2912      2913      2909      2912      2914      2910      2909      2911
      2910      2909      2912      2911      2909      2912      2912      2914      2915
      2912      2914      2916      2913      2912      2914      2914      2916      2917
      2914      2916      2918      2914      2916      2919      2915      2914      2916
      2916      2919      2920      2916      2919      2921      2916      2919      2922
      2917      2916      2918      2917      2916      2919      2918      2916      2919
      2919      2922      2923      2919      2922      2924      2919      2922      2925
      2920      2919      2921      2920      2919      2922      2921      2919      2922
      2922      2925      2926      2922      2925      2927      2922      2925      2928
      2923      2922      2924      2923      2922      2925      2924      2922      2925
      2925      2928      2929      2925      2928      2930      2925      2928      2931
      2926      2925      2927      2926      2925      2928      2927      2925      2928
      2928      2931      2932      2928      2931      2933      2928      2931      2934
      2929      2928      2930      2929      2928      2931      2930      2928      2931
      2931      2934      2935      2931      2934      2936      2931      2934      2937
      2932      2931      2933      2932      2931      2934      2933      2931      2934
      2934      2937      2938      2934      2937      2939      2934      2937      2940
      2935      2934      2936      2935      2934      2937      2936      2934      2937
      2938      2937      2939      2938      2937      2940      2939      2937      2940
      2941      2944      2945      2941      2944      2946      2941      2944      2947
      2942      2941      2943      2942      2941      2944      2943      2941      2944
      2944      2947      2948      2944      2947      2949      2944      2947      2950
      2945      2944      2946      2945      2944      2947      2946      2944      2947
      2947      2950      2951      2947      2950      2952      2947      2950      2953
      2948      2947      2949      2948      2947      2950      2949      2947      2950
      2950      2953      2954      2950      2953      2955      2950      2953      2956
      2951      2950      2952      2951      2950      2953      2952      2950      2953
      2953      2956      2957      2953      2956      2958      2953      2956      2959
      2954      2953      2955      2954      2953      2956      2955      2953      2956
      2956      2959      2960      2956      2959      2961      2956      2959      2962
      2957      2956      2958      2957      2956      2959      2958      2956      2959
      2959      2962      2963      2959      2962      2964      2959      2962      2965
      2960      2959      2961      2960      2959      2962      2961      2959      2962
      2962      2965      2966      2962      2965      2967      2962      2965      2968
      2963      2962      2964      2963      2962      2965      2964      2962      2965
      2965      2968      2969      2965      2968      2970      2965      2968      2971
      2966      2965      2967      2966      2965      2968      2967      2965      2968
      2968      2971      2972      2968      2971      2973      2968      2971      2974
      2969      2968      2970      2969      2968      2971      2970      2968      2971
      2971      2974      2975      2971      2974      2976      2971      2974      2977
      2972      2971      2973      2972      2971      2974      2973      2971      2974
      2974      2977      2978      2974      2977      2979      2974      2977      2980
      2975      2974      2976      2975      2974      2977      2976      2974      2977
      2977      2980      2981      2977      2980      2982      2977      2980      2983
      2978      2977      2979      2978      2977      2980      2979      2977      2980
      2980      2983      2984      2980      2983      2985      2980      2983      2986
      2981      2980      2982      2981      2980      2983      2982      2980      2983
      2983      2986      2987      2983      2986      2988      2983      2986      2989
      2984      2983      2985      2984      2983      2986      2985      2983      2986
      2987      2986      2988      2987      2986      2989      2988      2986      2989
      2990      2991      2992      2990      2991      2993      2990      2991      2994
      2990      2995      2996      2990      2995      2997      2990      2995      2998
      2990      2999      3000      2990      2999      3001      2990      2999      3002
      2990      3003      3004      2990      3003      3005      2990      3003      3006
      2991      2990      2995      2991      2990      2999      2991      2990      3003
      2992      2991      2993      2992      2991      2994      2993      2991      2994
      2995      2990      2999      2995      2990      3003      2996      2995      2997
      2996      2995      2998      2997      2995      2998      2999      2990      3003
      3000      2999      3001      3000      2999      3002      3001      2999      3002
      3003      3006      3007      3003      3006      3008      3003      3006      3013
      3004      3003      3005      3004      3003      3006      3005      3003      3006
      3006      3013      3009      3007      3006      3008      3007      3006      3013
      3008      3006      3013      3009      3012      3014      3010      3009      3011
      3010      3009      3012      3010      3009      3013      3011      3009      3012
      3011      3009      3013      3012      3009      3013      3012      3014      3015
      3012      3014      3016      3012      3014      3019      3014      3019      3017
      3014      3019      3020      3014      3019      3021      3015      3014      3016
      3015      3014      3019      3016      3014      3019      3017      3019      3020
      3017      3019      3021      3017      3069      3070      3017      3069      3071
      3018      3017      3019      3018      3017      3069      3019      3017      3069
      3019      3021      3022      3019      3021      3023      3019      3021      3025
      3020      3019      3021      3021      3023      3024      3021      3025      3026
      3021      3025      3027      3022      3021      3023      3022      3021      3025
      3023      3021      3025      3025      3027      3028      3025      3027      3029
      3026      3025      3027      3027      3029      3030      3027      3029      3031
      3027      3029      3032      3028      3027      3029      3029      3032      3033
      3029      3032      3034      3029      3032      3035      3030      3029      3031
      3030      3029      3032      3031      3029      3032      3032      3035      3036
      3032      3035      3037      3032      3035      3038      3033      3032      3034
      3033      3032      3035      3034      3032      3035      3035      3038      3039
      3035      3038      3040      3035      3038      3041      3036      3035      3037
      3036      3035      3038      3037      3035      3038      3038      3041      3042
      3038      3041      3043      3038      3041      3044      3039      3038      3040
      3039      3038      3041      3040      3038      3041      3041      3044      3045
      3041      3044      3046      3041      3044      3047      3042      3041      3043
      3042      3041      3044      3043      3041      3044      3044      3047      3048
      3044      3047      3049      3044      3047      3050      3045      3044      3046
      3045      3044      3047      3046      3044      3047      3047      3050      3051
      3047      3050      3052      3047      3050      3053      3048      3047      3049
      3048      3047      3050      3049      3047      3050      3050      3053      3054
      3050      3053      3055      3050      3053      3056      3051      3050      3052
      3051      3050      3053      3052      3050      3053      3053      3056      3057
      3053      3056      3058      3053      3056      3059      3054      3053      3055
      3054      3053      3056      3055      3053      3056      3056      3059      3060
      3056      3059      3061      3056      3059      3062      3057      3056      3058
      3057      3056      3059      3058      3056      3059      3059      3062      3063
      3059      3062      3064      3059      3062      3065      3060      3059      3061
      3060      3059      3062      3061      3059      3062      3062      3065      3066
      3062      3065      3067      3062      3065      3068      3063      3062      3064
      3063      3062      3065      3064      3062      3065      3066      3065      3067
      3066      3065      3068      3067      3065      3068      3069      3071      3072
      3069      3071      3073      3069      3071      3074      3070      3069      3071
      3071      3074      3075      3071      3074      3076      3071      3074      3077
      3072      3071      3073      3072      3071      3074      3073      3071      3074
      3074      3077      3078      3074      3077      3079      3074      3077      3080
      3075      3074      3076      3075      3074      3077      3076      3074      3077
      3077      3080      3081      3077      3080      3082      3077      3080      3083
      3078      3077      3079      3078      3077      3080      3079      3077      3080
      3080      3083      3084      3080      3083      3085      3080      3083      3086
      3081      3080      3082      3081      3080      3083      3082      3080      3083
      3083      3086      3087      3083      3086      3088      3083      3086      3089
      3084      3083      3085      3084      3083      3086      3085      3083      3086
      3086      3089      3090      3086      3089      3091      3086      3089      3092
      3087      3086      3088      3087      3086      3089      3088      3086      3089
      3089      3092      3093      3089      3092      3094      3090      3089      3091
      3090      3089      3092      3091      3089      3092      3092      3094      3095
      3092      3094      3096      3093      3092      3094      3094      3096      3097
      3094      3096      3098      3094      3096      3099      3095      3094      3096
      3096      3099      3100      3096      3099      3101      3096      3099      3102
      3097      3096      3098      3097      3096      3099      3098      3096      3099
      3099      3102      3103      3099      3102      3104      3099      3102      3105
      3100      3099      3101      3100      3099      3102      3101      3099      3102
      3102      3105      3106      3102      3105      3107      3102      3105      3108
      3103      3102      3104      3103      3102      3105      3104      3102      3105
      3105      3108      3109      3105      3108      3110      3105      3108      3111
      3106      3105      3107      3106      3105      3108      3107      3105      3108
      3108      3111      3112      3108      3111      3113      3108      3111      3114
      3109      3108      3110      3109      3108      3111      3110      3108      3111
      3111      3114      3115      3111      3114      3116      3111      3114      3117
      3112      3111      3113      3112      3111      3114      3113      3111      3114
      3114      3117      3118      3114      3117      3119      3114      3117      3120
      3115      3114      3116      3115      3114      3117      3116      3114      3117
      3118      3117      3119      3118      3117      3120      3119      3117      3120
      3121      3122      3123      3121      3122      3124      3121      3122      3125
      3121      3126      3127      3121      3126      3128      3121      3126      3129
      3121      3130      3131      3121      3130      3132      3121      3130      3133
      3121      3134      3135      3121      3134      3136      3121      3134      3137
      3122      3121      3126      3122      3121      3130      3122      3121      3134
      3123      3122      3124      3123      3122      3125      3124      3122      3125
      3126      3121      3130      3126      3121      3134      3127      3126      3128
      3127      3126      3129      3128      3126      3129      3130      3121      3134
      3131      3130      3132      3131      3130      3133      3132      3130      3133
      3134      3137      3138      3134      3137      3139      3134      3137      3144
      3135      3134      3136      3135      3134      3137      3136      3134      3137
      3137      3144      3140      3138      3137      3139      3138      3137      3144
      3139      3137      3144      3140      3143      3145      3141      3140      3142
      3141      3140      3143      3141      3140      3144      3142      3140      3143
      3142      3140      3144      3143      3140      3144      3143      3145      3146
      3143      3145      3147      3143      3145      3150      3145      3150      3148
      3145      3150      3151      3145      3150      3152      3146      3145      3147
      3146      3145      3150      3147      3145      3150      3148      3150      3151
      3148      3150      3152      3148      3200      3201      3148      3200      3202
      3149      3148      3150      3149      3148      3200      3150      3148      3200
      3150      3152      3153      3150      3152      3154      3150      3152      3156
      3151      3150      3152      3152      3154      3155      3152      3156      3157
      3152      3156      3158      3153      3152      3154      3153      3152      3156
      3154      3152      3156      3156      3158      3159      3156      3158      3160
      3157      3156      3158      3158      3160      3161      3158      3160      3162
      3158      3160      3163      3159      3158      3160      3160      3163      3164
      3160      3163      3165      3160      3163      3166      3161      3160      3162
      3161      3160      3163      3162      3160      3163      3163      3166      3167
      3163      3166      3168      3163      3166      3169      3164      3163      3165
      3164      3163      3166      3165      3163      3166      3166      3169      3170
      3166      3169      3171      3166      3169      3172      3167      3166      3168
      3167      3166      3169      3168      3166      3169      3169      3172      3173
      3169      3172      3174      3169      3172      3175      3170      3169      3171
      3170      3169      3172      3171      3169      3172      3172      3175      3176
      3172      3175      3177      3172      3175      3178      3173      3172      3174
      3173      3172      3175      3174      3172      3175      3175      3178      3179
      3175      3178      3180      3175      3178      3181      3176      3175      3177
      3176      3175      3178      3177      3175      3178      3178      3181      3182
      3178      3181      3183      3178      3181      3184      3179      3178      3180
      3179      3178      3181      3180      3178      3181      3181      3184      3185
      3181      3184      3186      3181      3184      3187      3182      3181      3183
      3182      3181      3184      3183      3181      3184      3184      3187      3188
      3184      3187      3189      3184      3187      3190      3185      3184      3186
      3185      3184      3187      3186      3184      3187      3187      3190      3191
      3187      3190      3192      3187      3190      3193      3188      3187      3189
      3188      3187      3190      3189      3187      3190      3190      3193      3194
      3190      3193      3195      3190      3193      3196      3191      3190      3192
      3191      3190      3193      3192      3190      3193      3193      3196      3197
      3193      3196      3198      3193      3196      3199      3194      3193      3195
      3194      3193      3196      3195      3193      3196      3197      3196      3198
      3197      3196      3199      3198      3196      3199      3200      3202      3203
      3200      3202      3204      3200      3202      3205      3201      3200      3202
      3202      3205      3206      3202      3205      3207      3202      3205      3208
      3203      3202      3204      3203      3202      3205      3204      3202      3205
      3205      3208      3209      3205      3208      3210      3205      3208      3211
      3206      3205      3207      3206      3205      3208      3207      3205      3208
      3208      3211      3212      3208      3211      3213      3208      3211      3214
      3209      3208      3210      3209      3208      3211      3210      3208      3211
      3211      3214      3215      3211      3214      3216      3211      3214      3217
      3212      3211      3213      3212      3211      3214      3213      3211      3214
      3214      3217      3218      3214      3217      3219      3214      3217      3220
      3215      3214      3216      3215      3214      3217      3216      3214      3217
      3217      3220      3221      3217      3220      3222      3217      3220      3223
      3218      3217      3219      3218      3217      3220      3219      3217      3220
      3220      3223      3224      3220      3223      3225      3221      3220      3222
      3221      3220      3223      3222      3220      3223      3223      3225      3226
      3223      3225      3227      3224      3223      3225      3225      3227      3228
      3225      3227      3229      3225      3227      3230      3226      3225      3227
      3227      3230      3231      3227      3230      3232      3227      3230      3233
      3228      3227      3229      3228      3227      3230      3229      3227      3230
      3230      3233      3234      3230      3233      3235      3230      3233      3236
      3231      3230      3232      3231      3230      3233      3232      3230      3233
      3233      3236      3237      3233      3236      3238      3233      3236      3239
      3234      3233      3235      3234      3233      3236      3235      3233      3236
      3236      3239      3240      3236      3239      3241      3236      3239      3242
      3237      3236      3238      3237      3236      3239      3238      3236      3239
      3239      3242      3243      3239      3242      3244      3239      3242      3245
      3240      3239      3241      3240      3239      3242      3241      3239      3242
      3242      3245      3246      3242      3245      3247      3242      3245      3248
      3243      3242      3244      3243      3242      3245      3244      3242      3245
      3245      3248      3249      3245      3248      3250      3245      3248      3251
      3246      3245      3247      3246      3245      3248      3247      3245      3248
      3249      3248      3250      3249      3248      3251      3250      3248      3251
      3252      3253      3254      3252      3253      3255      3252      3253      3256
      3252      3257      3258      3252      3257      3259      3252      3257      3260
      3252      3261      3262      3252      3261      3263      3252      3261      3264
      3252      3265      3266      3252      3265      3267      3252      3265      3268
      3253      3252      3257      3253      3252      3261      3253      3252      3265
      3254      3253      3255      3254      3253      3256      3255      3253      3256
      3257      3252      3261      3257      3252      3265      3258      3257      3259
      3258      3257      3260      3259      3257      3260      3261      3252      3265
      3262      3261      3263      3262      3261      3264      3263      3261      3264
      3265      3268      3269      3265      3268      3270      3265      3268      3275
      3266      3265      3267      3266      3265      3268      3267      3265      3268
      3268      3275      3271      3269      3268      3270      3269      3268      3275
      3270      3268      3275      3271      3274      3276      3272      3271      3273
      3272      3271      3274      3272      3271      3275      3273      3271      3274
      3273      3271      3275      3274      3271      3275      3274      3276      3277
      3274      3276      3278      3274      3276      3281      3276      3281      3279
      3276      3281      3282      3276      3281      3283      3277      3276      3278
      3277      3276      3281      3278      3276      3281      3279      3281      3282
      3279      3281      3283      3279      3331      3332      3279      3331      3333
      3280      3279      3281      3280      3279      3331      3281      3279      3331
      3281      3283      3284      3281      3283      3285      3281      3283      3287
      3282      3281      3283      3283      3285      3286      3283      3287      3288
      3283      3287      3289      3284      3283      3285      3284      3283      3287
      3285      3283      3287      3287      3289      3290      3287      3289      3291
      3288      3287      3289      3289      3291      3292      3289      3291      3293
      3289      3291      3294      3290      3289      3291      3291      3294      3295
      3291      3294      3296      3291      3294      3297      3292      3291      3293
      3292      3291      3294      3293      3291      3294      3294      3297      3298
      3294      3297      3299      3294      3297      3300      3295      3294      3296
      3295      3294      3297      3296      3294      3297      3297      3300      3301
      3297      3300      3302      3297      3300      3303      3298      3297      3299
      3298      3297      3300      3299      3297      3300      3300      3303      3304
      3300      3303      3305      3300      3303      3306      3301      3300      3302
      3301      3300      3303      3302      3300      3303      3303      3306      3307
      3303      3306      3308      3303      3306      3309      3304      3303      3305
      3304      3303      3306      3305      3303      3306      3306      3309      3310
      3306      3309      3311      3306      3309      3312      3307      3306      3308
      3307      3306      3309      3308      3306      3309      3309      3312      3313
      3309      3312      3314      3309      3312      3315      3310      3309      3311
      3310      3309      3312      3311      3309      3312      3312      3315      3316
      3312      3315      3317      3312      3315      3318      3313      3312      3314
      3313      3312      3315      3314      3312      3315      3315      3318      3319
      3315      3318      3320      3315      3318      3321      3316      3315      3317
      3316      3315      3318      3317      3315      3318      3318      3321      3322
      3318      3321      3323      3318      3321      3324      3319      3318      3320
      3319      3318      3321      3320      3318      3321      3321      3324      3325
      3321      3324      3326      3321      3324      3327      3322      3321      3323
      3322      3321      3324      3323      3321      3324      3324      3327      3328
      3324      3327      3329      3324      3327      3330      3325      3324      3326
      3325      3324      3327      3326      3324      3327      3328      3327      3329
      3328      3327      3330      3329      3327      3330      3331      3333      3334
      3331      3333      3335      3331      3333      3336      3332      3331      3333
      3333      3336      3337      3333      3336      3338      3333      3336      3339
      3334      3333      3335      3334      3333      3336      3335      3333      3336
      3336      3339      3340      3336      3339      3341      3336      3339      3342
      3337      3336      3338      3337      3336      3339      3338      3336      3339
      3339      3342      3343      3339      3342      3344      3339      3342      3345
      3340      3339      3341      3340      3339      3342      3341      3339      3342
      3342      3345      3346      3342      3345      3347      3342      3345      3348
      3343      3342      3344      3343      3342      3345      3344      3342      3345
      3345      3348      3349      3345      3348      3350      3345      3348      3351
      3346      3345      3347      3346      3345      3348      3347      3345      3348
      3348      3351      3352      3348      3351      3353      3348      3351      3354
      3349      3348      3350      3349      3348      3351      3350      3348      3351
      3351      3354      3355      3351      3354      3356      3352      3351      3353
      3352      3351      3354      3353      3351      3354      3354      3356      3357
      3354      3356      3358      3355      3354      3356      3356      3358      3359
      3356      3358      3360      3356      3358      3361      3357      3356      3358
      3358      3361      3362      3358      3361      3363      3358      3361      3364
      3359      3358      3360      3359      3358      3361      3360      3358      3361
      3361      3364      3365      3361      3364      3366      3361      3364      3367
      3362      3361      3363      3362      3361      3364      3363      3361      3364
      3364      3367      3368      3364      3367      3369      3364      3367      3370
      3365      3364      3366      3365      3364      3367      3366      3364      3367
      3367      3370      3371      3367      3370      3372      3367      3370      3373
      3368      3367      3369      3368      3367      3370      3369      3367      3370
      3370      3373      3374      3370      3373      3375      3370      3373      3376
      3371      3370      3372      3371      3370      3373      3372      3370      3373
      3373      3376      3377      3373      3376      3378      3373      3376      3379
      3374      3373      3375      3374      3373      3376      3375      3373      3376
      3376      3379      3380      3376      3379      3381      3376      3379      3382
      3377      3376      3378      3377      3376      3379      3378      3376      3379
      3380      3379      3381      3380      3379      3382      3381      3379      3382
      3383      3387      3388      3383      3387      3389      3383      3387      3390
      3384      3383      3385      3384      3383      3386      3384      3383      3387
      3385      3383      3386      3385      3383      3387      3386      3383      3387
      3387      3390      3391      3387      3390      3392      3387      3390      3396
      3388      3387      3389      3388      3387      3390      3389      3387      3390
      3390      3396      3393      3391      3390      3392      3391      3390      3396
      3392      3390      3396      3393      3397      3398      3394      3393      3395
      3394      3393      3396      3394      3393      3397      3395      3393      3396
      3395      3393      3397      3396      3393      3397      3397      3398      3399
      3397      3398      3400      3397      3398      3401      3398      3401      3402
      3398      3401      3403      3398      3401      3409      3399      3398      3400
      3399      3398      3401      3400      3398      3401      3401      3403      3404
      3401      3409      3410      3401      3409      3411      3401      3409      3412
      3402      3401      3403      3402      3401      3409      3403      3401      3409
      3403      3404      3405      3403      3404      3406      3404      3406      3407
      3404      3406      3408      3404      3406      3418      3405      3404      3406
      3406      3418      3419      3406      3418      3420      3406      3418      3421
      3407      3406      3408      3407      3406      3418      3408      3406      3418
      3409      3412      3413      3410      3409      3411      3410      3409      3412
      3411      3409      3412      3412      3413      3414      3412      3413      3415
      3413      3415      3416      3413      3415      3417      3413      3415      3465
      3414      3413      3415      3415      3465      3466      3415      3465      3467
      3415      3465      3468      3416      3415      3417      3416      3415      3465
      3417      3415      3465      3418      3421      3422      3418      3421      3423
      3418      3421      3424      3419      3418      3420      3419      3418      3421
      3420      3418      3421      3421      3424      3425      3421      3424      3426
      3421      3424      3427      3422      3421      3423      3422      3421      3424
      3423      3421      3424      3424      3427      3428      3424      3427      3429
      3424      3427      3430      3425      3424      3426      3425      3424      3427
      3426      3424      3427      3427      3430      3431      3427      3430      3432
      3427      3430      3433      3428      3427      3429      3428      3427      3430
      3429      3427      3430      3430      3433      3434      3430      3433      3435
      3430      3433      3436      3431      3430      3432      3431      3430      3433
      3432      3430      3433      3433      3436      3437      3433      3436      3438
      3434      3433      3435      3434      3433      3436      3435      3433      3436
      3436      3438      3439      3436      3438      3440      3437      3436      3438
      3438      3440      3441      3438      3440      3442      3438      3440      3443
      3439      3438      3440      3440      3443      3444      3440      3443      3445
      3440      3443      3446      3441      3440      3442      3441      3440      3443
      3442      3440      3443      3443      3446      3447      3443      3446      3448
      3443      3446      3449      3444      3443      3445      3444      3443      3446
      3445      3443      3446      3446      3449      3450      3446      3449      3451
      3446      3449      3452      3447      3446      3448      3447      3446      3449
      3448      3446      3449      3449      3452      3453      3449      3452      3454
      3449      3452      3455      3450      3449      3451      3450      3449      3452
      3451      3449      3452      3452      3455      3456      3452      3455      3457
      3452      3455      3458      3453      3452      3454      3453      3452      3455
      3454      3452      3455      3455      3458      3459      3455      3458      3460
      3455      3458      3461      3456      3455      3457      3456      3455      3458
      3457      3455      3458      3458      3461      3462      3458      3461      3463
      3458      3461      3464      3459      3458      3460      3459      3458      3461
      3460      3458      3461      3462      3461      3463      3462      3461      3464
      3463      3461      3464      3465      3468      3469      3465      3468      3470
      3465      3468      3471      3466      3465      3467      3466      3465      3468
      3467      3465      3468      3468      3471      3472      3468      3471      3473
      3468      3471      3474      3469      3468      3470      3469      3468      3471
      3470      3468      3471      3471      3474      3475      3471      3474      3476
      3471      3474      3477      3472      3471      3473      3472      3471      3474
      3473      3471      3474      3474      3477      3478      3474      3477      3479
      3474      3477      3480      3475      3474      3476      3475      3474      3477
      3476      3474      3477      3477      3480      3481      3477      3480      3482
      3477      3480      3483      3478      3477      3479      3478      3477      3480
      3479      3477      3480      3480      3483      3484      3480      3483      3485
      3480      3483      3486      3481      3480      3482      3481      3480      3483
      3482      3480      3483      3483      3486      3487      3483      3486      3488
      3483      3486      3489      3484      3483      3485      3484      3483      3486
      3485      3483      3486      3486      3489      3490      3486      3489      3491
      3486      3489      3492      3487      3486      3488      3487      3486      3489
      3488      3486      3489      3489      3492      3493      3489      3492      3494
      3489      3492      3495      3490      3489      3491      3490      3489      3492
      3491      3489      3492      3492      3495      3496      3492      3495      3497
      3492      3495      3498      3493      3492      3494      3493      3492      3495
      3494      3492      3495      3495      3498      3499      3495      3498      3500
      3495      3498      3501      3496      3495      3497      3496      3495      3498
      3497      3495      3498      3498      3501      3502      3498      3501      3503
      3498      3501      3504      3499      3498      3500      3499      3498      3501
      3500      3498      3501      3501      3504      3505      3501      3504      3506
      3501      3504      3507      3502      3501      3503      3502      3501      3504
      3503      3501      3504      3504      3507      3508      3504      3507      3509
      3504      3507      3510      3505      3504      3506      3505      3504      3507
      3506      3504      3507      3507      3510      3511      3507      3510      3512
      3507      3510      3513      3508      3507      3509      3508      3507      3510
      3509      3507      3510      3511      3510      3512      3511      3510      3513
      3512      3510      3513      3514      3515      3516      3514      3515      3517
      3514      3515      3518      3514      3519      3520      3514      3519      3521
      3514      3519      3522      3514      3523      3524      3514      3523      3525
      3514      3523      3526      3514      3527      3528      3514      3527      3529
      3514      3527      3530      3515      3514      3519      3515      3514      3523
      3515      3514      3527      3516      3515      3517      3516      3515      3518
      3517      3515      3518      3519      3514      3523      3519      3514      3527
      3520      3519      3521      3520      3519      3522      3521      3519      3522
      3523      3514      3527      3524      3523      3525      3524      3523      3526
      3525      3523      3526      3527      3530      3531      3527      3530      3532
      3527      3530      3537      3528      3527      3529      3528      3527      3530
      3529      3527      3530      3530      3537      3533      3531      3530      3532
      3531      3530      3537      3532      3530      3537      3533      3536      3538
      3534      3533      3535      3534      3533      3536      3534      3533      3537
      3535      3533      3536      3535      3533      3537      3536      3533      3537
      3536      3538      3539      3536      3538      3540      3536      3538      3543
      3538      3543      3541      3538      3543      3544      3538      3543      3545
      3539      3538      3540      3539      3538      3543      3540      3538      3543
      3541      3543      3544      3541      3543      3545      3541      3593      3594
      3541      3593      3595      3542      3541      3543      3542      3541      3593
      3543      3541      3593      3543      3545      3546      3543      3545      3547
      3543      3545      3549      3544      3543      3545      3545      3547      3548
      3545      3549      3550      3545      3549      3551      3546      3545      3547
      3546      3545      3549      3547      3545      3549      3549      3551      3552
      3549      3551      3553      3550      3549      3551      3551      3553      3554
      3551      3553      3555      3551      3553      3556      3552      3551      3553
      3553      3556      3557      3553      3556      3558      3553      3556      3559
      3554      3553      3555      3554      3553      3556      3555      3553      3556
      3556      3559      3560      3556      3559      3561      3556      3559      3562
      3557      3556      3558      3557      3556      3559      3558      3556      3559
      3559      3562      3563      3559      3562      3564      3559      3562      3565
      3560      3559      3561      3560      3559      3562      3561      3559      3562
      3562      3565      3566      3562      3565      3567      3562      3565      3568
      3563      3562      3564      3563      3562      3565      3564      3562      3565
      3565      3568      3569      3565      3568      3570      3565      3568      3571
      3566      3565      3567      3566      3565      3568      3567      3565      3568
      3568      3571      3572      3568      3571      3573      3568      3571      3574
      3569      3568      3570      3569      3568      3571      3570      3568      3571
      3571      3574      3575      3571      3574      3576      3571      3574      3577
      3572      3571      3573      3572      3571      3574      3573      3571      3574
      3574      3577      3578      3574      3577      3579      3574      3577      3580
      3575      3574      3576      3575      3574      3577      3576      3574      3577
      3577      3580      3581      3577      3580      3582      3577      3580      3583
      3578      3577      3579      3578      3577      3580      3579      3577      3580
      3580      3583      3584      3580      3583      3585      3580      3583      3586
      3581      3580      3582      3581      3580      3583      3582      3580      3583
      3583      3586      3587      3583      3586      3588      3583      3586      3589
      3584      3583      3585      3584      3583      3586      3585      3583      3586
      3586      3589      3590      3586      3589      3591      3586      3589      3592
      3587      3586      3588      3587      3586      3589      3588      3586      3589
      3590      3589      3591      3590      3589      3592      3591      3589      3592
      3593      3595      3596      3593      3595      3597      3593      3595      3598
      3594      3593      3595      3595      3598      3599      3595      3598      3600
      3595      3598      3601      3596      3595      3597      3596      3595      3598
      3597      3595      3598      3598      3601      3602      3598      3601      3603
      3598      3601      3604      3599      3598      3600      3599      3598      3601
      3600      3598      3601      3601      3604      3605      3601      3604      3606
      3601      3604      3607      3602      3601      3603      3602      3601      3604
      3603      3601      3604      3604      3607      3608      3604      3607      3609
      3604      3607      3610      3605      3604      3606      3605      3604      3607
      3606      3604      3607      3607      3610      3611      3607      3610      3612
      3607      3610      3613      3608      3607      3609      3608      3607      3610
      3609      3607      3610      3610      3613      3614      3610      3613      3615
      3610      3613      3616      3611      3610      3612      3611      3610      3613
      3612      3610      3613      3613      3616      3617      3613      3616      3618
      3614      3613      3615      3614      3613      3616      3615      3613      3616
      3616      3618      3619      3616      3618      3620      3617      3616      3618
      3618      3620      3621      3618      3620      3622      3618      3620      3623
      3619      3618      3620      3620      3623      3624      3620      3623      3625
      3620      3623      3626      3621      3620      3622      3621      3620      3623
      3622      3620      3623      3623      3626      3627      3623      3626      3628
      3623      3626      3629      3624      3623      3625      3624      3623      3626
      3625      3623      3626      3626      3629      3630      3626      3629      3631
      3626      3629      3632      3627      3626      3628      3627      3626      3629
      3628      3626      3629      3629      3632      3633      3629      3632      3634
      3629      3632      3635      3630      3629      3631      3630      3629      3632
      3631      3629      3632      3632      3635      3636      3632      3635      3637
      3632      3635      3638      3633      3632      3634      3633      3632      3635
      3634      3632      3635      3635      3638      3639      3635      3638      3640
      3635      3638      3641      3636      3635      3637      3636      3635      3638
      3637      3635      3638      3638      3641      3642      3638      3641      3643
      3638      3641      3644      3639      3638      3640      3639      3638      3641
      3640      3638      3641      3642      3641      3643      3642      3641      3644
      3643      3641      3644      3645      3647      3648      3645      3649      3650
      3645      3649      3651      3645      3649      3652      3645      3691      3688
      3645      3691      3692      3645      3691      3693      3646      3645      3647
      3646      3645      3649      3646      3645      3691      3647      3645      3649
      3647      3645      3691      3649      3645      3691      3649      3652      3653
      3649      3652      3683      3650      3649      3651      3650      3649      3652
      3651      3649      3652      3652      3653      3654      3652      3653      3655
      3652      3683      3681      3652      3683      3684      3652      3683      3688
      3653      3652      3683      3653      3655      3656      3653      3655      3657
      3653      3655      3658      3654      3653      3655      3655      3658      3659
      3655      3658      3660      3655      3658      3681      3656      3655      3657
      3656      3655      3658      3657      3655      3658      3658      3660      3661
      3658      3660      3662      3658      3660      3670      3658      3681      3678
      3658      3681      3682      3658      3681      3683      3659      3658      3660
      3659      3658      3681      3660      3658      3681      3660      3662      3663
      3660      3662      3664      3660      3662      3665      3660      3670      3668
      3660      3670      3671      3660      3670      3675      3661      3660      3662
      3661      3660      3670      3662      3660      3670      3662      3665      3666
      3662      3665      3667      3662      3665      3668      3663      3662      3664
      3663      3662      3665      3664      3662      3665      3665      3668      3669
      3665      3668      3670      3665      3668      3694      3666      3665      3667
      3666      3665      3668      3667      3665      3668      3668      3670      3671
      3668      3670      3675      3668      3694      3695      3668      3694      3696
      3668      3694      3700      3669      3668      3670      3669      3668      3694
      3670      3668      3694      3670      3671      3672      3670      3671      3673
      3670      3671      3674      3670      3675      3676      3670      3675      3677
      3670      3675      3678      3671      3670      3675      3672      3671      3673
      3672      3671      3674      3673      3671      3674      3675      3678      3679
      3675      3678      3680      3675      3678      3681      3676      3675      3677
      3676      3675      3678      3677      3675      3678      3678      3681      3682
      3678      3681      3683      3679      3678      3680      3679      3678      3681
      3680      3678      3681      3681      3683      3684      3681      3683      3688
      3682      3681      3683      3683      3684      3685      3683      3684      3686
      3683      3684      3687      3683      3688      3689      3683      3688      3690
      3683      3688      3691      3684      3683      3688      3685      3684      3686
      3685      3684      3687      3686      3684      3687      3688      3691      3692
      3688      3691      3693      3689      3688      3690      3689      3688      3691
      3690      3688      3691      3692      3691      3693      3694      3696      3697
      3694      3696      3698      3694      3696      3699      3694      3700      3701
      3694      3700      3702      3694      3700      3703      3695      3694      3696
      3695      3694      3700      3696      3694      3700      3697      3696      3698
      3697      3696      3699      3698      3696      3699      3700      3703      3704
      3700      3703      3705      3700      3703      3706      3701      3700      3702
      3701      3700      3703      3702      3700      3703      3703      3706      3707
      3703      3706      3708      3703      3706      3709      3704      3703      3705
      3704      3703      3706      3705      3703      3706      3706      3709      3710
      3706      3709      3711      3706      3709      3715      3707      3706      3708
      3707      3706      3709      3708      3706      3709      3709      3711      3712
      3709      3711      3713      3709      3711      3714      3709      3715      3716
      3709      3715      3717      3709      3715      3718      3710      3709      3711
      3710      3709      3715      3711      3709      3715      3712      3711      3713
      3712      3711      3714      3713      3711      3714      3716      3715      3717
      3716      3715      3718      3717      3715      3718      3719      3723      3724
      3719      3723      3725      3719      3723      3726      3720      3719      3721
      3720      3719      3722      3720      3719      3723      3721      3719      3722
      3721      3719      3723      3722      3719      3723      3723      3726      3727
      3723      3726      3728      3723      3726      3732      3724      3723      3725
      3724      3723      3726      3725      3723      3726      3726      3732      3729
      3727      3726      3728      3727      3726      3732      3728      3726      3732
      3729      3733      3734      3730      3729      3731      3730      3729      3732
      3730      3729      3733      3731      3729      3732      3731      3729      3733
      3732      3729      3733      3733      3734      3735      3733      3734      3736
      3733      3734      3737      3734      3737      3738      3734      3737      3739
      3734      3737      3745      3735      3734      3736      3735      3734      3737
      3736      3734      3737      3737      3739      3740      3737      3745      3746
      3737      3745      3747      3737      3745      3748      3738      3737      3739
      3738      3737      3745      3739      3737      3745      3739      3740      3741
      3739      3740      3742      3740      3742      3743      3740      3742      3744
      3740      3742      3754      3741      3740      3742      3742      3754      3755
      3742      3754      3756      3742      3754      3757      3743      3742      3744
      3743      3742      3754      3744      3742      3754      3745      3748      3749
      3746      3745      3747      3746      3745      3748      3747      3745      3748
      3748      3749      3750      3748      3749      3751      3749      3751      3752
      3749      3751      3753      3749      3751      3801      3750      3749      3751
      3751      3801      3802      3751      3801      3803      3751      3801      3804
      3752      3751      3753      3752      3751      3801      3753      3751      3801
      3754      3757      3758      3754      3757      3759      3754      3757      3760
      3755      3754      3756      3755      3754      3757      3756      3754      3757
      3757      3760      3761      3757      3760      3762      3758      3757      3759
      3758      3757      3760      3759      3757      3760      3760      3762      3763
      3760      3762      3764      3761      3760      3762      3762      3764      3765
      3762      3764      3766      3762      3764      3767      3763      3762      3764
      3764      3767      3768      3764      3767      3769      3765      3764      3766
      3765      3764      3767      3766      3764      3767      3767      3769      3770
      3767      3769      3771      3768      3767      3769      3769      3771      3772
      3769      3771      3773      3769      3771      3774      3770      3769      3771
      3771      3774      3775      3771      3774      3776      3772      3771      3773
      3772      3771      3774      3773      3771      3774      3774      3776      3777
      3774      3776      3778      3775      3774      3776      3776      3778      3779
      3776      3778      3780      3776      3778      3781      3777      3776      3778
      3778      3781      3782      3778      3781      3783      3779      3778      3780
      3779      3778      3781      3780      3778      3781      3781      3783      3784
      3781      3783      3785      3782      3781      3783      3783      3785      3786
      3783      3785      3787      3783      3785      3788      3784      3783      3785
      3785      3788      3789      3785      3788      3790      3785      3788      3791
      3786      3785      3787      3786      3785      3788      3787      3785      3788
      3788      3791      3792      3788      3791      3793      3788      3791      3794
      3789      3788      3790      3789      3788      3791      3790      3788      3791
      3791      3794      3795      3791      3794      3796      3791      3794      3797
      3792      3791      3793      3792      3791      3794      3793      3791      3794
      3794      3797      3798      3794      3797      3799      3794      3797      3800
      3795      3794      3796      3795      3794      3797      3796      3794      3797
      3798      3797      3799      3798      3797      3800      3799      3797      3800
      3801      3804      3805      3801      3804      3806      3801      3804      3807
      3802      3801      3803      3802      3801      3804      3803      3801      3804
      3804      3807      3808      3804      3807      3809      3804      3807      3810
      3805      3804      3806      3805      3804      3807      3806      3804      3807
      3807      3810      3811      3807      3810      3812      3807      3810      3813
      3808      3807      3809      3808      3807      3810      3809      3807      3810
      3810      3813      3814      3810      3813      3815      3810      3813      3816
      3811      3810      3812      3811      3810      3813      3812      3810      3813
      3813      3816      3817      3813      3816      3818      3813      3816      3819
      3814      3813      3815      3814      3813      3816      3815      3813      3816
      3816      3819      3820      3816      3819      3821      3816      3819      3822
      3817      3816      3818      3817      3816      3819      3818      3816      3819
      3819      3822      3823      3819      3822      3824      3819      3822      3825
      3820      3819      3821      3820      3819      3822      3821      3819      3822
      3822      3825      3826      3822      3825      3827      3822      3825      3828
      3823      3822      3824      3823      3822      3825      3824      3822      3825
      3825      3828      3829      3825      3828      3830      3825      3828      3831
      3826      3825      3827      3826      3825      3828      3827      3825      3828
      3828      3831      3832      3828      3831      3833      3828      3831      3834
      3829      3828      3830      3829      3828      3831      3830      3828      3831
      3831      3834      3835      3831      3834      3836      3831      3834      3837
      3832      3831      3833      3832      3831      3834      3833      3831      3834
      3834      3837      3838      3834      3837      3839      3834      3837      3840
      3835      3834      3836      3835      3834      3837      3836      3834      3837
      3837      3840      3841      3837      3840      3842      3837      3840      3843
      3838      3837      3839      3838      3837      3840      3839      3837      3840
      3840      3843      3844      3840      3843      3845      3840      3843      3846
      3841      3840      3842      3841      3840      3843      3842      3840      3843
      3843      3846      3847      3843      3846      3848      3843      3846      3849
      3844      3843      3845      3844      3843      3846      3845      3843      3846
      3847      3846      3848      3847      3846      3849      3848      3846      3849
      3850      3854      3855      3850      3854      3856      3850      3854      3859
      3851      3850      3852      3851      3850      3853      3851      3850      3854
      3852      3850      3853      3852      3850      3854      3853      3850      3854
      3854      3856      3857      3854      3856      3858      3854      3859      3860
      3854      3859      3861      3854      3859      3865      3855      3854      3856
      3855      3854      3859      3856      3854      3859      3857      3856      3858
      3859      3865      3862      3860      3859      3861      3860      3859      3865
      3861      3859      3865      3862      3866      3867      3863      3862      3864
      3863      3862      3865      3863      3862      3866      3864      3862      3865
      3864      3862      3866      3865      3862      3866      3866      3867      3868
      3866      3867      3869      3866      3867      3870      3867      3870      3871
      3867      3870      3872      3867      3870      3878      3868      3867      3869
      3868      3867      3870      3869      3867      3870      3870      3872      3873
      3870      3878      3879      3870      3878      3880      3870      3878      3881
      3871      3870      3872      3871      3870      3878      3872      3870      3878
      3872      3873      3874      3872      3873      3875      3873      3875      3876
      3873      3875      3877      3873      3875      3887      3874      3873      3875
      3875      3887      3888      3875      3887      3889      3875      3887      3890
      3876      3875      3877      3876      3875      3887      3877      3875      3887
      3878      3881      3882      3879      3878      3880      3879      3878      3881
      3880      3878      3881      3881      3882      3883      3881      3882      3884
      3882      3884      3885      3882      3884      3886      3882      3884      3934
      3883      3882      3884      3884      3934      3935      3884      3934      3936
      3884      3934      3937      3885      3884      3886      3885      3884      3934
      3886      3884      3934      3887      3890      3891      3887      3890      3892
      3887      3890      3893      3888      3887      3889      3888      3887      3890
      3889      3887      3890      3890      3893      3894      3890      3893      3895
      3891      3890      3892      3891      3890      3893      3892      3890      3893
      3893      3895      3896      3893      3895      3897      3894      3893      3895
      3895      3897      3898      3895      3897      3899      3895      3897      3900
      3896      3895      3897      3897      3900      3901      3897      3900      3902
      3898      3897      3899      3898      3897      3900      3899      3897      3900
      3900      3902      3903      3900      3902      3904      3901      3900      3902
      3902      3904      3905      3902      3904      3906      3902      3904      3907
      3903      3902      3904      3904      3907      3908      3904      3907      3909
      3905      3904      3906      3905      3904      3907      3906      3904      3907
      3907      3909      3910      3907      3909      3911      3908      3907      3909
      3909      3911      3912      3909      3911      3913      3909      3911      3914
      3910      3909      3911      3911      3914      3915      3911      3914      3916
      3912      3911      3913      3912      3911      3914      3913      3911      3914
      3914      3916      3917      3914      3916      3918      3915      3914      3916
      3916      3918      3919      3916      3918      3920      3916      3918      3921
      3917      3916      3918      3918      3921      3922      3918      3921      3923
      3918      3921      3924      3919      3918      3920      3919      3918      3921
      3920      3918      3921      3921      3924      3925      3921      3924      3926
      3921      3924      3927      3922      3921      3923      3922      3921      3924
      3923      3921      3924      3924      3927      3928      3924      3927      3929
      3924      3927      3930      3925      3924      3926      3925      3924      3927
      3926      3924      3927      3927      3930      3931      3927      3930      3932
      3927      3930      3933      3928      3927      3929      3928      3927      3930
      3929      3927      3930      3931      3930      3932      3931      3930      3933
      3932      3930      3933      3934      3937      3938      3934      3937      3939
      3934      3937      3940      3935      3934      3936      3935      3934      3937
      3936      3934      3937      3937      3940      3941      3937      3940      3942
      3937      3940      3943      3938      3937      3939      3938      3937      3940
      3939      3937      3940      3940      3943      3944      3940      3943      3945
      3940      3943      3946      3941      3940      3942      3941      3940      3943
      3942      3940      3943      3943      3946      3947      3943      3946      3948
      3943      3946      3949      3944      3943      3945      3944      3943      3946
      3945      3943      3946      3946      3949      3950      3946      3949      3951
      3946      3949      3952      3947      3946      3948      3947      3946      3949
      3948      3946      3949      3949      3952      3953      3949      3952      3954
      3949      3952      3955      3950      3949      3951      3950      3949      3952
      3951      3949      3952      3952      3955      3956      3952      3955      3957
      3952      3955      3958      3953      3952      3954      3953      3952      3955
      3954      3952      3955      3955      3958      3959      3955      3958      3960
      3955      3958      3961      3956      3955      3957      3956      3955      3958
      3957      3955      3958      3958      3961      3962      3958      3961      3963
      3958      3961      3964      3959      3958      3960      3959      3958      3961
      3960      3958      3961      3961      3964      3965      3961      3964      3966
      3961      3964      3967      3962      3961      3963      3962      3961      3964
      3963      3961      3964      3964      3967      3968      3964      3967      3969
      3964      3967      3970      3965      3964      3966      3965      3964      3967
      3966      3964      3967      3967      3970      3971      3967      3970      3972
      3967      3970      3973      3968      3967      3969      3968      3967      3970
      3969      3967      3970      3970      3973      3974      3970      3973      3975
      3970      3973      3976      3971      3970      3972      3971      3970      3973
      3972      3970      3973      3973      3976      3977      3973      3976      3978
      3973      3976      3979      3974      3973      3975      3974      3973      3976
      3975      3973      3976      3976      3979      3980      3976      3979      3981
      3976      3979      3982      3977      3976      3978      3977      3976      3979
      3978      3976      3979      3980      3979      3981      3980      3979      3982
      3981      3979      3982      3983      3984      3985      3983      3984      3986
      3983      3984      3999      3983      3987      3988      3983      3987      3989
      3983      3987      3990      3983      3991      3992      3983      3991      3993
      3983      3991      3994      3983      3995      3996      3983      3995      3997
      3983      3995      3998      3984      3983      3987      3984      3983      3991
      3984      3983      3995      3984      3999      4000      3984      3999      4001
      3984      3999      4005      3985      3984      3986      3985      3984      3999
      3986      3984      3999      3987      3983      3991      3987      3983      3995
      3988      3987      3989      3988      3987      3990      3989      3987      3990
      3991      3983      3995      3992      3991      3993      3992      3991      3994
      3993      3991      3994      3996      3995      3997      3996      3995      3998
      3997      3995      3998      3999      4005      4002      4000      3999      4001
      4000      3999      4005      4001      3999      4005      4002      4006      4007
      4003      4002      4004      4003      4002      4005      4003      4002      4006
      4004      4002      4005      4004      4002      4006      4005      4002      4006
      4006      4007      4008      4006      4007      4009      4006      4007      4010
      4007      4010      4011      4007      4010      4012      4007      4010      4018
      4008      4007      4009      4008      4007      4010      4009      4007      4010
      4010      4012      4013      4010      4018      4019      4010      4018      4020
      4010      4018      4021      4011      4010      4012      4011      4010      4018
      4012      4010      4018      4012      4013      4014      4012      4013      4015
      4013      4015      4016      4013      4015      4017      4013      4015      4027
      4014      4013      4015      4015      4027      4028      4015      4027      4029
      4015      4027      4030      4016      4015      4017      4016      4015      4027
      4017      4015      4027      4018      4021      4022      4019      4018      4020
      4019      4018      4021      4020      4018      4021      4021      4022      4023
      4021      4022      4024      4022      4024      4025      4022      4024      4026
      4022      4024      4074      4023      4022      4024      4024      4074      4075
      4024      4074      4076      4024      4074      4077      4025      4024      4026
      4025      4024      4074      4026      4024      4074      4027      4030      4031
      4027      4030      4032      4027      4030      4033      4028      4027      4029
      4028      4027      4030      4029      4027      4030      4030      4033      4034
      4030      4033      4035      4031      4030      4032      4031      4030      4033
      4032      4030      4033      4033      4035      4036      4033      4035      4037
      4034      4033      4035      4035      4037      4038      4035      4037      4039
      4035      4037      4040      4036      4035      4037      4037      4040      4041
      4037      4040      4042      4038      4037      4039      4038      4037      4040
      4039      4037      4040      4040      4042      4043      4040      4042      4044
      4041      4040      4042      4042      4044      4045      4042      4044      4046
      4042      4044      4047      4043      4042      4044      4044      4047      4048
      4044      4047      4049      4045      4044      4046      4045      4044      4047
      4046      4044      4047      4047      4049      4050      4047      4049      4051
      4048      4047      4049      4049      4051      4052      4049      4051      4053
      4049      4051      4054      4050      4049      4051      4051      4054      4055
      4051      4054      4056      4052      4051      4053      4052      4051      4054
      4053      4051      4054      4054      4056      4057      4054      4056      4058
      4055      4054      4056      4056      4058      4059      4056      4058      4060
      4056      4058      4061      4057      4056      4058      4058      4061      4062
      4058      4061      4063      4058      4061      4064      4059      4058      4060
      4059      4058      4061      4060      4058      4061      4061      4064      4065
      4061      4064      4066      4061      4064      4067      4062      4061      4063
      4062      4061      4064      4063      4061      4064      4064      4067      4068
      4064      4067      4069      4064      4067      4070      4065      4064      4066
      4065      4064      4067      4066      4064      4067      4067      4070      4071
      4067      4070      4072      4067      4070      4073      4068      4067      4069
      4068      4067      4070      4069      4067      4070      4071      4070      4072
      4071      4070      4073      4072      4070      4073      4074      4077      4078
      4074      4077      4079      4074      4077      4080      4075      4074      4076
      4075      4074      4077      4076      4074      4077      4077      4080      4081
      4077      4080      4082      4077      4080      4083      4078      4077      4079
      4078      4077      4080      4079      4077      4080      4080      4083      4084
      4080      4083      4085      4080      4083      4086      4081      4080      4082
      4081      4080      4083      4082      4080      4083      4083      4086      4087
      4083      4086      4088      4083      4086      4089      4084      4083      4085
      4084      4083      4086      4085      4083      4086      4086      4089      4090
      4086      4089      4091      4086      4089      4092      4087      4086      4088
      4087      4086      4089      4088      4086      4089      4089      4092      4093
      4089      4092      4094      4089      4092      4095      4090      4089      4091
      4090      4089      4092      4091      4089      4092      4092      4095      4096
      4092      4095      4097      4092      4095      4098      4093      4092      4094
      4093      4092      4095      4094      4092      4095      4095      4098      4099
      4095      4098      4100      4095      4098      4101      4096      4095      4097
      4096      4095      4098      4097      4095      4098      4098      4101      4102
      4098      4101      4103      4098      4101      4104      4099      4098      4100
      4099      4098      4101      4100      4098      4101      4101      4104      4105
      4101      4104      4106      4101      4104      4107      4102      4101      4103
      4102      4101      4104      4103      4101      4104      4104      4107      4108
      4104      4107      4109      4104      4107      4110      4105      4104      4106
      4105      4104      4107      4106      4104      4107      4107      4110      4111
      4107      4110      4112      4107      4110      4113      4108      4107      4109
      4108      4107      4110      4109      4107      4110      4110      4113      4114
      4110      4113      4115      4110      4113      4116      4111      4110      4112
      4111      4110      4113      4112      4110      4113      4113      4116      4117
      4113      4116      4118      4113      4116      4119      4114      4113      4115
      4114      4113      4116      4115      4113      4116      4116      4119      4120
      4116      4119      4121      4116      4119      4122      4117      4116      4118
      4117      4116      4119      4118      4116      4119      4120      4119      4121
      4120      4119      4122      4121      4119      4122      4123      4124      4125
      4123      4124      4126      4123      4124      4139      4123      4127      4128
      4123      4127      4129      4123      4127      4130      4123      4131      4132
      4123      4131      4133      4123      4131      4134      4123      4135      4136
      4123      4135      4137      4123      4135      4138      4124      4123      4127
      4124      4123      4131      4124      4123      4135      4124      4139      4140
      4124      4139      4141      4124      4139      4145      4125      4124      4126
      4125      4124      4139      4126      4124      4139      4127      4123      4131
      4127      4123      4135      4128      4127      4129      4128      4127      4130
      4129      4127      4130      4131      4123      4135      4132      4131      4133
      4132      4131      4134      4133      4131      4134      4136      4135      4137
      4136      4135      4138      4137      4135      4138      4139      4145      4142
      4140      4139      4141      4140      4139      4145      4141      4139      4145
      4142      4146      4147      4143      4142      4144      4143      4142      4145
      4143      4142      4146      4144      4142      4145      4144      4142      4146
      4145      4142      4146      4146      4147      4148      4146      4147      4149
      4146      4147      4150      4147      4150      4151      4147      4150      4152
      4147      4150      4158      4148      4147      4149      4148      4147      4150
      4149      4147      4150      4150      4152      4153      4150      4158      4159
      4150      4158      4160      4150      4158      4161      4151      4150      4152
      4151      4150      4158      4152      4150      4158      4152      4153      4154
      4152      4153      4155      4153      4155      4156      4153      4155      4157
      4153      4155      4167      4154      4153      4155      4155      4167      4168
      4155      4167      4169      4155      4167      4170      4156      4155      4157
      4156      4155      4167      4157      4155      4167      4158      4161      4162
      4159      4158      4160      4159      4158      4161      4160      4158      4161
      4161      4162      4163      4161      4162      4164      4162      4164      4165
      4162      4164      4166      4162      4164      4214      4163      4162      4164
      4164      4214      4215      4164      4214      4216      4164      4214      4217
      4165      4164      4166      4165      4164      4214      4166      4164      4214
      4167      4170      4171      4167      4170      4172      4167      4170      4173
      4168      4167      4169      4168      4167      4170      4169      4167      4170
      4170      4173      4174      4170      4173      4175      4170      4173      4176
      4171      4170      4172      4171      4170      4173      4172      4170      4173
      4173      4176      4177      4173      4176      4178      4173      4176      4179
      4174      4173      4175      4174      4173      4176      4175      4173      4176
      4176      4179      4180      4176      4179      4181      4176      4179      4182
      4177      4176      4178      4177      4176      4179      4178      4176      4179
      4179      4182      4183      4179      4182      4184      4179      4182      4185
      4180      4179      4181      4180      4179      4182      4181      4179      4182
      4182      4185      4186      4182      4185      4187      4183      4182      4184
      4183      4182      4185      4184      4182      4185      4185      4187      4188
      4185      4187      4189      4186      4185      4187      4187      4189      4190
      4187      4189      4191      4187      4189      4192      4188      4187      4189
      4189      4192      4193      4189      4192      4194      4189      4192      4195
      4190      4189      4191      4190      4189      4192      4191      4189      4192
      4192      4195      4196      4192      4195      4197      4192      4195      4198
      4193      4192      4194      4193      4192      4195      4194      4192      4195
      4195      4198      4199      4195      4198      4200      4195      4198      4201
      4196      4195      4197      4196      4195      4198      4197      4195      4198
      4198      4201      4202      4198      4201      4203      4198      4201      4204
      4199      4198      4200      4199      4198      4201      4200      4198      4201
      4201      4204      4205      4201      4204      4206      4201      4204      4207
      4202      4201      4203      4202      4201      4204      4203      4201      4204
      4204      4207      4208      4204      4207      4209      4204      4207      4210
      4205      4204      4206      4205      4204      4207      4206      4204      4207
      4207      4210      4211      4207      4210      4212      4207      4210      4213
      4208      4207      4209      4208      4207      4210      4209      4207      4210
      4211      4210      4212      4211      4210      4213      4212      4210      4213
      4214      4217      4218      4214      4217      4219      4214      4217      4220
      4215      4214      4216      4215      4214      4217      4216      4214      4217
      4217      4220      4221      4217      4220      4222      4217      4220      4223
      4218      4217      4219      4218      4217      4220      4219      4217      4220
      4220      4223      4224      4220      4223      4225      4220      4223      4226
      4221      4220      4222      4221      4220      4223      4222      4220      4223
      4223      4226      4227      4223      4226      4228      4223      4226      4229
      4224      4223      4225      4224      4223      4226      4225      4223      4226
      4226      4229      4230      4226      4229      4231      4226      4229      4232
      4227      4226      4228      4227      4226      4229      4228      4226      4229
      4229      4232      4233      4229      4232      4234      4229      4232      4235
      4230      4229      4231      4230      4229      4232      4231      4229      4232
      4232      4235      4236      4232      4235      4237      4232      4235      4238
      4233      4232      4234      4233      4232      4235      4234      4232      4235
      4235      4238      4239      4235      4238      4240      4235      4238      4241
      4236      4235      4237      4236      4235      4238      4237      4235      4238
      4238      4241      4242      4238      4241      4243      4238      4241      4244
      4239      4238      4240      4239      4238      4241      4240      4238      4241
      4241      4244      4245      4241      4244      4246      4241      4244      4247
      4242      4241      4243      4242      4241      4244      4243      4241      4244
      4244      4247      4248      4244      4247      4249      4244      4247      4250
      4245      4244      4246      4245      4244      4247      4246      4244      4247
      4247      4250      4251      4247      4250      4252      4247      4250      4253
      4248      4247      4249      4248      4247      4250      4249      4247      4250
      4250      4253      4254      4250      4253      4255      4250      4253      4256
      4251      4250      4252      4251      4250      4253      4252      4250      4253
      4254      4253      4255      4254      4253      4256      4255      4253      4256
      4257      4261      4262      4257      4261      4263      4257      4261      4264
      4258      4257      4259      4258      4257      4260      4258      4257      4261
      4259      4257      4260      4259      4257      4261      4260      4257      4261
      4261      4264      4265      4261      4264      4266      4261      4264      4270
      4262      4261      4263      4262      4261      4264      4263      4261      4264
      4264      4270      4267      4265      4264      4266      4265      4264      4270
      4266      4264      4270      4267      4271      4272      4268      4267      4269
      4268      4267      4270      4268      4267      4271      4269      4267      4270
      4269      4267      4271      4270      4267      4271      4271      4272      4273
      4271      4272      4274      4271      4272      4275      4272      4275      4276
      4272      4275      4277      4272      4275      4283      4273      4272      4274
      4273      4272      4275      4274      4272      4275      4275      4277      4278
      4275      4283      4284      4275      4283      4285      4275      4283      4286
      4276      4275      4277      4276      4275      4283      4277      4275      4283
      4277      4278      4279      4277      4278      4280      4278      4280      4281
      4278      4280      4282      4278      4280      4292      4279      4278      4280
      4280      4292      4293      4280      4292      4294      4280      4292      4295
      4281      4280      4282      4281      4280      4292      4282      4280      4292
      4283      4286      4287      4284      4283      4285      4284      4283      4286
      4285      4283      4286      4286      4287      4288      4286      4287      4289
      4287      4289      4290      4287      4289      4291      4287      4289      4339
      4288      4287      4289      4289      4339      4340      4289      4339      4341
      4289      4339      4342      4290      4289      4291      4290      4289      4339
      4291      4289      4339      4292      4295      4296      4292      4295      4297
      4292      4295      4298      4293      4292      4294      4293      4292      4295
      4294      4292      4295      4295      4298      4299      4295      4298      4300
      4296      4295      4297      4296      4295      4298      4297      4295      4298
      4298      4300      4301      4298      4300      4302      4299      4298      4300
      4300      4302      4303      4300      4302      4304      4300      4302      4305
      4301      4300      4302      4302      4305      4306      4302      4305      4307
      4303      4302      4304      4303      4302      4305      4304      4302      4305
      4305      4307      4308      4305      4307      4309      4306      4305      4307
      4307      4309      4310      4307      4309      4311      4307      4309      4312
      4308      4307      4309      4309      4312      4313      4309      4312      4314
      4310      4309      4311      4310      4309      4312      4311      4309      4312
      4312      4314      4315      4312      4314      4316      4313      4312      4314
      4314      4316      4317      4314      4316      4318      4314      4316      4319
      4315      4314      4316      4316      4319      4320      4316      4319      4321
      4317      4316      4318      4317      4316      4319      4318      4316      4319
      4319      4321      4322      4319      4321      4323      4320      4319      4321
      4321      4323      4324      4321      4323      4325      4321      4323      4326
      4322      4321      4323      4323      4326      4327      4323      4326      4328
      4323      4326      4329      4324      4323      4325      4324      4323      4326
      4325      4323      4326      4326      4329      4330      4326      4329      4331
      4326      4329      4332      4327      4326      4328      4327      4326      4329
      4328      4326      4329      4329      4332      4333      4329      4332      4334
      4329      4332      4335      4330      4329      4331      4330      4329      4332
      4331      4329      4332      4332      4335      4336      4332      4335      4337
      4332      4335      4338      4333      4332      4334      4333      4332      4335
      4334      4332      4335      4336      4335      4337      4336      4335      4338
      4337      4335      4338      4339      4342      4343      4339      4342      4344
      4339      4342      4345      4340      4339      4341      4340      4339      4342
      4341      4339      4342      4342      4345      4346      4342      4345      4347
      4342      4345      4348      4343      4342      4344      4343      4342      4345
      4344      4342      4345      4345      4348      4349      4345      4348      4350
      4345      4348      4351      4346      4345      4347      4346      4345      4348
      4347      4345      4348      4348      4351      4352      4348      4351      4353
      4348      4351      4354      4349      4348      4350      4349      4348      4351
      4350      4348      4351      4351      4354      4355      4351      4354      4356
      4351      4354      4357      4352      4351      4353      4352      4351      4354
      4353      4351      4354      4354      4357      4358      4354      4357      4359
      4354      4357      4360      4355      4354      4356      4355      4354      4357
      4356      4354      4357      4357      4360      4361      4357      4360      4362
      4357      4360      4363      4358      4357      4359      4358      4357      4360
      4359      4357      4360      4360      4363      4364      4360      4363      4365
      4360      4363      4366      4361      4360      4362      4361      4360      4363
      4362      4360      4363      4363      4366      4367      4363      4366      4368
      4363      4366      4369      4364      4363      4365      4364      4363      4366
      4365      4363      4366      4366      4369      4370      4366      4369      4371
      4366      4369      4372      4367      4366      4368      4367      4366      4369
      4368      4366      4369      4369      4372      4373      4369      4372      4374
      4369      4372      4375      4370      4369      4371      4370      4369      4372
      4371      4369      4372      4372      4375      4376      4372      4375      4377
      4372      4375      4378      4373      4372      4374      4373      4372      4375
      4374      4372      4375      4375      4378      4379      4375      4378      4380
      4375      4378      4381      4376      4375      4377      4376      4375      4378
      4377      4375      4378      4378      4381      4382      4378      4381      4383
      4378      4381      4384      4379      4378      4380      4379      4378      4381
      4380      4378      4381      4381      4384      4385      4381      4384      4386
      4381      4384      4387      4382      4381      4383      4382      4381      4384
      4383      4381      4384      4385      4384      4386      4385      4384      4387
      4386      4384      4387      4388      4392      4393      4388      4392      4394
      4388      4392      4395      4389      4388      4390      4389      4388      4391
      4389      4388      4392      4390      4388      4391      4390      4388      4392
      4391      4388      4392      4392      4395      4396      4392      4395      4397
      4392      4395      4401      4393      4392      4394      4393      4392      4395
      4394      4392      4395      4395      4401      4398      4396      4395      4397
      4396      4395      4401      4397      4395      4401      4398      4402      4403
      4399      4398      4400      4399      4398      4401      4399      4398      4402
      4400      4398      4401      4400      4398      4402      4401      4398      4402
      4402      4403      4404      4402      4403      4405      4402      4403      4406
      4403      4406      4407      4403      4406      4408      4403      4406      4414
      4404      4403      4405      4404      4403      4406      4405      4403      4406
      4406      4408      4409      4406      4414      4415      4406      4414      4416
      4406      4414      4417      4407      4406      4408      4407      4406      4414
      4408      4406      4414      4408      4409      4410      4408      4409      4411
      4409      4411      4412      4409      4411      4413      4409      4411      4423
      4410      4409      4411      4411      4423      4424      4411      4423      4425
      4411      4423      4426      4412      4411      4413      4412      4411      4423
      4413      4411      4423      4414      4417      4418      4415      4414      4416
      4415      4414      4417      4416      4414      4417      4417      4418      4419
      4417      4418      4420      4418      4420      4421      4418      4420      4422
      4418      4420      4470      4419      4418      4420      4420      4470      4471
      4420      4470      4472      4420      4470      4473      4421      4420      4422
      4421      4420      4470      4422      4420      4470      4423      4426      4427
      4423      4426      4428      4423      4426      4429      4424      4423      4425
      4424      4423      4426      4425      4423      4426      4426      4429      4430
      4426      4429      4431      4426      4429      4432      4427      4426      4428
      4427      4426      4429      4428      4426      4429      4429      4432      4433
      4429      4432      4434      4429      4432      4435      4430      4429      4431
      4430      4429      4432      4431      4429      4432      4432      4435      4436
      4432      4435      4437      4432      4435      4438      4433      4432      4434
      4433      4432      4435      4434      4432      4435      4435      4438      4439
      4435      4438      4440      4435      4438      4441      4436      4435      4437
      4436      4435      4438      4437      4435      4438      4438      4441      4442
      4438      4441      4443      4439      4438      4440      4439      4438      4441
      4440      4438      4441      4441      4443      4444      4441      4443      4445
      4442      4441      4443      4443      4445      4446      4443      4445      4447
      4443      4445      4448      4444      4443      4445      4445      4448      4449
      4445      4448      4450      4445      4448      4451      4446      4445      4447
      4446      4445      4448      4447      4445      4448      4448      4451      4452
      4448      4451      4453      4448      4451      4454      4449      4448      4450
      4449      4448      4451      4450      4448      4451      4451      4454      4455
      4451      4454      4456      4451      4454      4457      4452      4451      4453
      4452      4451      4454      4453      4451      4454      4454      4457      4458
      4454      4457      4459      4454      4457      4460      4455      4454      4456
      4455      4454      4457      4456      4454      4457      4457      4460      4461
      4457      4460      4462      4457      4460      4463      4458      4457      4459
      4458      4457      4460      4459      4457      4460      4460      4463      4464
      4460      4463      4465      4460      4463      4466      4461      4460      4462
      4461      4460      4463      4462      4460      4463      4463      4466      4467
      4463      4466      4468      4463      4466      4469      4464      4463      4465
      4464      4463      4466      4465      4463      4466      4467      4466      4468
      4467      4466      4469      4468      4466      4469      4470      4473      4474
      4470      4473      4475      4470      4473      4476      4471      4470      4472
      4471      4470      4473      4472      4470      4473      4473      4476      4477
      4473      4476      4478      4473      4476      4479      4474      4473      4475
      4474      4473      4476      4475      4473      4476      4476      4479      4480
      4476      4479      4481      4476      4479      4482      4477      4476      4478
      4477      4476      4479      4478      4476      4479      4479      4482      4483
      4479      4482      4484      4479      4482      4485      4480      4479      4481
      4480      4479      4482      4481      4479      4482      4482      4485      4486
      4482      4485      4487      4482      4485      4488      4483      4482      4484
      4483      4482      4485      4484      4482      4485      4485      4488      4489
      4485      4488      4490      4485      4488      4491      4486      4485      4487
      4486      4485      4488      4487      4485      4488      4488      4491      4492
      4488      4491      4493      4488      4491      4494      4489      4488      4490
      4489      4488      4491      4490      4488      4491      4491      4494      4495
      4491      4494      4496      4491      4494      4497      4492      4491      4493
      4492      4491      4494      4493      4491      4494      4494      4497      4498
      4494      4497      4499      4494      4497      4500      4495      4494      4496
      4495      4494      4497      4496      4494      4497      4497      4500      4501
      4497      4500      4502      4497      4500      4503      4498      4497      4499
      4498      4497      4500      4499      4497      4500      4500      4503      4504
      4500      4503      4505      4500      4503      4506      4501      4500      4502
      4501      4500      4503      4502      4500      4503      4503      4506      4507
      4503      4506      4508      4503      4506      4509      4504      4503      4505
      4504      4503      4506      4505      4503      4506      4506      4509      4510
      4506      4509      4511      4506      4509      4512      4507      4506      4508
      4507      4506      4509      4508      4506      4509      4509      4512      4513
      4509      4512      4514      4509      4512      4515      4510      4509      4511
      4510      4509      4512      4511      4509      4512      4512      4515      4516
      4512      4515      4517      4512      4515      4518      4513      4512      4514
      4513      4512      4515      4514      4512      4515      4516      4515      4517
      4516      4515      4518      4517      4515      4518      4519      4523      4524
      4519      4523      4525      4519      4523      4528      4520      4519      4521
      4520      4519      4522      4520      4519      4523      4521      4519      4522
      4521      4519      4523      4522      4519      4523      4523      4525      4526
      4523      4525      4527      4523      4528      4529      4523      4528      4530
      4523      4528      4534      4524      4523      4525      4524      4523      4528
      4525      4523      4528      4526      4525      4527      4528      4534      4531
      4529      4528      4530      4529      4528      4534      4530      4528      4534
      4531      4535      4536      4532      4531      4533      4532      4531      4534
      4532      4531      4535      4533      4531      4534      4533      4531      4535
      4534      4531      4535      4535      4536      4537      4535      4536      4538
      4535      4536      4539      4536      4539      4540      4536      4539      4541
      4536      4539      4547      4537      4536      4538      4537      4536      4539
      4538      4536      4539      4539      4541      4542      4539      4547      4548
      4539      4547      4549      4539      4547      4550      4540      4539      4541
      4540      4539      4547      4541      4539      4547      4541      4542      4543
      4541      4542      4544      4542      4544      4545      4542      4544      4546
      4542      4544      4556      4543      4542      4544      4544      4556      4557
      4544      4556      4558      4544      4556      4559      4545      4544      4546
      4545      4544      4556      4546      4544      4556      4547      4550      4551
      4548      4547      4549      4548      4547      4550      4549      4547      4550
      4550      4551      4552      4550      4551      4553      4551      4553      4554
      4551      4553      4555      4551      4553      4603      4552      4551      4553
      4553      4603      4604      4553      4603      4605      4553      4603      4606
      4554      4553      4555      4554      4553      4603      4555      4553      4603
      4556      4559      4560      4556      4559      4561      4556      4559      4562
      4557      4556      4558      4557      4556      4559      4558      4556      4559
      4559      4562      4563      4559      4562      4564      4560      4559      4561
      4560      4559      4562      4561      4559      4562      4562      4564      4565
      4562      4564      4566      4563      4562      4564      4564      4566      4567
      4564      4566      4568      4564      4566      4569      4565      4564      4566
      4566      4569      4570      4566      4569      4571      4567      4566      4568
      4567      4566      4569      4568      4566      4569      4569      4571      4572
      4569      4571      4573      4570      4569      4571      4571      4573      4574
      4571      4573      4575      4571      4573      4576      4572      4571      4573
      4573      4576      4577      4573      4576      4578      4574      4573      4575
      4574      4573      4576      4575      4573      4576      4576      4578      4579
      4576      4578      4580      4577      4576      4578      4578      4580      4581
      4578      4580      4582      4578      4580      4583      4579      4578      4580
      4580      4583      4584      4580      4583      4585      4581      4580      4582
      4581      4580      4583      4582      4580      4583      4583      4585      4586
      4583      4585      4587      4584      4583      4585      4585      4587      4588
      4585      4587      4589      4585      4587      4590      4586      4585      4587
      4587      4590      4591      4587      4590      4592      4587      4590      4593
      4588      4587      4589      4588      4587      4590      4589      4587      4590
      4590      4593      4594      4590      4593      4595      4590      4593      4596
      4591      4590      4592      4591      4590      4593      4592      4590      4593
      4593      4596      4597      4593      4596      4598      4593      4596      4599
      4594      4593      4595      4594      4593      4596      4595      4593      4596
      4596      4599      4600      4596      4599      4601      4596      4599      4602
      4597      4596      4598      4597      4596      4599      4598      4596      4599
      4600      4599      4601      4600      4599      4602      4601      4599      4602
      4603      4606      4607      4603      4606      4608      4603      4606      4609
      4604      4603      4605      4604      4603      4606      4605      4603      4606
      4606      4609      4610      4606      4609      4611      4606      4609      4612
      4607      4606      4608      4607      4606      4609      4608      4606      4609
      4609      4612      4613      4609      4612      4614      4609      4612      4615
      4610      4609      4611      4610      4609      4612      4611      4609      4612
      4612      4615      4616      4612      4615      4617      4612      4615      4618
      4613      4612      4614      4613      4612      4615      4614      4612      4615
      4615      4618      4619      4615      4618      4620      4615      4618      4621
      4616      4615      4617      4616      4615      4618      4617      4615      4618
      4618      4621      4622      4618      4621      4623      4618      4621      4624
      4619      4618      4620      4619      4618      4621      4620      4618      4621
      4621      4624      4625      4621      4624      4626      4621      4624      4627
      4622      4621      4623      4622      4621      4624      4623      4621      4624
      4624      4627      4628      4624      4627      4629      4624      4627      4630
      4625      4624      4626      4625      4624      4627      4626      4624      4627
      4627      4630      4631      4627      4630      4632      4627      4630      4633
      4628      4627      4629      4628      4627      4630      4629      4627      4630
      4630      4633      4634      4630      4633      4635      4630      4633      4636
      4631      4630      4632      4631      4630      4633      4632      4630      4633
      4633      4636      4637      4633      4636      4638      4633      4636      4639
      4634      4633      4635      4634      4633      4636      4635      4633      4636
      4636      4639      4640      4636      4639      4641      4636      4639      4642
      4637      4636      4638      4637      4636      4639      4638      4636      4639
      4639      4642      4643      4639      4642      4644      4639      4642      4645
      4640      4639      4641      4640      4639      4642      4641      4639      4642
      4642      4645      4646      4642      4645      4647      4642      4645      4648
      4643      4642      4644      4643      4642      4645      4644      4642      4645
      4645      4648      4649      4645      4648      4650      4645      4648      4651
      4646      4645      4647      4646      4645      4648      4647      4645      4648
      4649      4648      4650      4649      4648      4651      4650      4648      4651
      4652      4654      4655      4652      4656      4657      4652      4656      4658
      4652      4656      4660      4652      4672      4668      4652      4672      4673
      4652      4672      4677      4653      4652      4654      4653      4652      4656
      4653      4652      4672      4654      4652      4656      4654      4652      4672
      4656      4652      4672      4656      4658      4659      4656      4660      4661
      4656      4660      4662      4656      4660      4664      4657      4656      4658
      4657      4656      4660      4658      4656      4660      4660      4662      4663
      4660      4664      4665      4660      4664      4666      4660      4664      4668
      4661      4660      4662      4661      4660      4664      4662      4660      4664
      4664      4666      4667      4664      4668      4669      4664      4668      4670
      4664      4668      4672      4665      4664      4666      4665      4664      4668
      4666      4664      4668      4668      4670      4671      4668      4672      4673
      4668      4672      4677      4669      4668      4670      4669      4668      4672
      4670      4668      4672      4672      4677      4674      4673      4672      4677
      4674      4678      4679      4675      4674      4676      4675      4674      4677
      4675      4674      4678      4676      4674      4677      4676      4674      4678
      4677      4674      4678      4678      4679      4680      4678      4679      4681
      4678      4679      4682      4679      4682      4683      4679      4682      4684
      4679      4682      4690      4680      4679      4681      4680      4679      4682
      4681      4679      4682      4682      4684      4685      4682      4690      4691
      4682      4690      4692      4682      4690      4693      4683      4682      4684
      4683      4682      4690      4684      4682      4690      4684      4685      4686
      4684      4685      4687      4685      4687      4688      4685      4687      4689
      4685      4687      4699      4686      4685      4687      4687      4699      4700
      4687      4699      4701      4687      4699      4702      4688      4687      4689
      4688      4687      4699      4689      4687      4699      4690      4693      4694
      4691      4690      4692      4691      4690      4693      4692      4690      4693
      4693      4694      4695      4693      4694      4696      4694      4696      4697
      4694      4696      4698      4694      4696      4746      4695      4694      4696
      4696      4746      4747      4696      4746      4748      4696      4746      4749
      4697      4696      4698      4697      4696      4746      4698      4696      4746
      4699      4702      4703      4699      4702      4704      4699      4702      4705
      4700      4699      4701      4700      4699      4702      4701      4699      4702
      4702      4705      4706      4702      4705      4707      4703      4702      4704
      4703      4702      4705      4704      4702      4705      4705      4707      4708
      4705      4707      4709      4706      4705      4707      4707      4709      4710
      4707      4709      4711      4707      4709      4712      4708      4707      4709
      4709      4712      4713      4709      4712      4714      4710      4709      4711
      4710      4709      4712      4711      4709      4712      4712      4714      4715
      4712      4714      4716      4713      4712      4714      4714      4716      4717
      4714      4716      4718      4714      4716      4719      4715      4714      4716
      4716      4719      4720      4716      4719      4721      4717      4716      4718
      4717      4716      4719      4718      4716      4719      4719      4721      4722
      4719      4721      4723      4720      4719      4721      4721      4723      4724
      4721      4723      4725      4721      4723      4726      4722      4721      4723
      4723      4726      4727      4723      4726      4728      4724      4723      4725
      4724      4723      4726      4725      4723      4726      4726      4728      4729
      4726      4728      4730      4727      4726      4728      4728      4730      4731
      4728      4730      4732      4728      4730      4733      4729      4728      4730
      4730      4733      4734      4730      4733      4735      4730      4733      4736
      4731      4730      4732      4731      4730      4733      4732      4730      4733
      4733      4736      4737      4733      4736      4738      4733      4736      4739
      4734      4733      4735      4734      4733      4736      4735      4733      4736
      4736      4739      4740      4736      4739      4741      4736      4739      4742
      4737      4736      4738      4737      4736      4739      4738      4736      4739
      4739      4742      4743      4739      4742      4744      4739      4742      4745
      4740      4739      4741      4740      4739      4742      4741      4739      4742
      4743      4742      4744      4743      4742      4745      4744      4742      4745
      4746      4749      4750      4746      4749      4751      4746      4749      4752
      4747      4746      4748      4747      4746      4749      4748      4746      4749
      4749      4752      4753      4749      4752      4754      4749      4752      4755
      4750      4749      4751      4750      4749      4752      4751      4749      4752
      4752      4755      4756      4752      4755      4757      4752      4755      4758
      4753      4752      4754      4753      4752      4755      4754      4752      4755
      4755      4758      4759      4755      4758      4760      4755      4758      4761
      4756      4755      4757      4756      4755      4758      4757      4755      4758
      4758      4761      4762      4758      4761      4763      4758      4761      4764
      4759      4758      4760      4759      4758      4761      4760      4758      4761
      4761      4764      4765      4761      4764      4766      4761      4764      4767
      4762      4761      4763      4762      4761      4764      4763      4761      4764
      4764      4767      4768      4764      4767      4769      4764      4767      4770
      4765      4764      4766      4765      4764      4767      4766      4764      4767
      4767      4770      4771      4767      4770      4772      4767      4770      4773
      4768      4767      4769      4768      4767      4770      4769      4767      4770
      4770      4773      4774      4770      4773      4775      4770      4773      4776
      4771      4770      4772      4771      4770      4773      4772      4770      4773
      4773      4776      4777      4773      4776      4778      4773      4776      4779
      4774      4773      4775      4774      4773      4776      4775      4773      4776
      4776      4779      4780      4776      4779      4781      4776      4779      4782
      4777      4776      4778      4777      4776      4779      4778      4776      4779
      4779      4782      4783      4779      4782      4784      4779      4782      4785
      4780      4779      4781      4780      4779      4782      4781      4779      4782
      4782      4785      4786      4782      4785      4787      4782      4785      4788
      4783      4782      4784      4783      4782      4785      4784      4782      4785
      4785      4788      4789      4785      4788      4790      4785      4788      4791
      4786      4785      4787      4786      4785      4788      4787      4785      4788
      4788      4791      4792      4788      4791      4793      4788      4791      4794
      4789      4788      4790      4789      4788      4791      4790      4788      4791
      4792      4791      4793      4792      4791      4794      4793      4791      4794
      4795      4797      4798      4795      4799      4800      4795      4799      4801
      4795      4799      4802      4795      4841      4838      4795      4841      4842
      4795      4841      4843      4796      4795      4797      4796      4795      4799
      4796      4795      4841      4797      4795      4799      4797      4795      4841
      4799      4795      4841      4799      4802      4803      4799      4802      4833
      4800      4799      4801      4800      4799      4802      4801      4799      4802
      4802      4803      4804      4802      4803      4805      4802      4833      4831
      4802      4833      4834      4802      4833      4838      4803      4802      4833
      4803      4805      4806      4803      4805      4807      4803      4805      4808
      4804      4803      4805      4805      4808      4809      4805      4808      4810
      4805      4808      4831      4806      4805      4807      4806      4805      4808
      4807      4805      4808      4808      4810      4811      4808      4810      4812
      4808      4810      4820      4808      4831      4828      4808      4831      4832
      4808      4831      4833      4809      4808      4810      4809      4808      4831
      4810      4808      4831      4810      4812      4813      4810      4812      4814
      4810      4812      4815      4810      4820      4818      4810      4820      4821
      4810      4820      4825      4811      4810      4812      4811      4810      4820
      4812      4810      4820      4812      4815      4816      4812      4815      4817
      4812      4815      4818      4813      4812      4814      4813      4812      4815
      4814      4812      4815      4815      4818      4819      4815      4818      4820
      4815      4818      4844      4816      4815      4817      4816      4815      4818
      4817      4815      4818      4818      4820      4821      4818      4820      4825
      4818      4844      4845      4818      4844      4846      4818      4844      4850
      4819      4818      4820      4819      4818      4844      4820      4818      4844
      4820      4821      4822      4820      4821      4823      4820      4821      4824
      4820      4825      4826      4820      4825      4827      4820      4825      4828
      4821      4820      4825      4822      4821      4823      4822      4821      4824
      4823      4821      4824      4825      4828      4829      4825      4828      4830
      4825      4828      4831      4826      4825      4827      4826      4825      4828
      4827      4825      4828      4828      4831      4832      4828      4831      4833
      4829      4828      4830      4829      4828      4831      4830      4828      4831
      4831      4833      4834      4831      4833      4838      4832      4831      4833
      4833      4834      4835      4833      4834      4836      4833      4834      4837
      4833      4838      4839      4833      4838      4840      4833      4838      4841
      4834      4833      4838      4835      4834      4836      4835      4834      4837
      4836      4834      4837      4838      4841      4842      4838      4841      4843
      4839      4838      4840      4839      4838      4841      4840      4838      4841
      4842      4841      4843      4844      4846      4847      4844      4846      4848
      4844      4846      4849      4844      4850      4851      4844      4850      4852
      4844      4850      4853      4845      4844      4846      4845      4844      4850
      4846      4844      4850      4847      4846      4848      4847      4846      4849
      4848      4846      4849      4850      4853      4854      4850      4853      4855
      4850      4853      4856      4851      4850      4852      4851      4850      4853
      4852      4850      4853      4853      4856      4857      4853      4856      4858
      4853      4856      4859      4854      4853      4855      4854      4853      4856
      4855      4853      4856      4856      4859      4860      4856      4859      4861
      4856      4859      4865      4857      4856      4858      4857      4856      4859
      4858      4856      4859      4859      4861      4862      4859      4861      4863
      4859      4861      4864      4859      4865      4866      4859      4865      4867
      4859      4865      4868      4860      4859      4861      4860      4859      4865
      4861      4859      4865      4862      4861      4863      4862      4861      4864
      4863      4861      4864      4866      4865      4867      4866      4865      4868
      4867      4865      4868      4869      4871      4872      4869      4873      4874
      4869      4873      4875      4869      4873      4876      4869      4915      4912
      4869      4915      4916      4869      4915      4917      4870      4869      4871
      4870      4869      4873      4870      4869      4915      4871      4869      4873
      4871      4869      4915      4873      4869      4915      4873      4876      4877
      4873      4876      4907      4874      4873      4875      4874      4873      4876
      4875      4873      4876      4876      4877      4878      4876      4877      4879
      4876      4907      4905      4876      4907      4908      4876      4907      4912
      4877      4876      4907      4877      4879      4880      4877      4879      4881
      4877      4879      4882      4878      4877      4879      4879      4882      4883
      4879      4882      4884      4879      4882      4905      4880      4879      4881
      4880      4879      4882      4881      4879      4882      4882      4884      4885
      4882      4884      4886      4882      4884      4894      4882      4905      4902
      4882      4905      4906      4882      4905      4907      4883      4882      4884
      4883      4882      4905      4884      4882      4905      4884      4886      4887
      4884      4886      4888      4884      4886      4889      4884      4894      4892
      4884      4894      4895      4884      4894      4899      4885      4884      4886
      4885      4884      4894      4886      4884      4894      4886      4889      4890
      4886      4889      4891      4886      4889      4892      4887      4886      4888
      4887      4886      4889      4888      4886      4889      4889      4892      4893
      4889      4892      4894      4889      4892      4918      4890      4889      4891
      4890      4889      4892      4891      4889      4892      4892      4894      4895
      4892      4894      4899      4892      4918      4919      4892      4918      4920
      4892      4918      4924      4893      4892      4894      4893      4892      4918
      4894      4892      4918      4894      4895      4896      4894      4895      4897
      4894      4895      4898      4894      4899      4900      4894      4899      4901
      4894      4899      4902      4895      4894      4899      4896      4895      4897
      4896      4895      4898      4897      4895      4898      4899      4902      4903
      4899      4902      4904      4899      4902      4905      4900      4899      4901
      4900      4899      4902      4901      4899      4902      4902      4905      4906
      4902      4905      4907      4903      4902      4904      4903      4902      4905
      4904      4902      4905      4905      4907      4908      4905      4907      4912
      4906      4905      4907      4907      4908      4909      4907      4908      4910
      4907      4908      4911      4907      4912      4913      4907      4912      4914
      4907      4912      4915      4908      4907      4912      4909      4908      4910
      4909      4908      4911      4910      4908      4911      4912      4915      4916
      4912      4915      4917      4913      4912      4914      4913      4912      4915
      4914      4912      4915      4916      4915      4917      4918      4920      4921
      4918      4920      4922      4918      4920      4923      4918      4924      4925
      4918      4924      4926      4918      4924      4927      4919      4918      4920
      4919      4918      4924      4920      4918      4924      4921      4920      4922
      4921      4920      4923      4922      4920      4923      4924      4927      4928
      4924      4927      4929      4924      4927      4930      4925      4924      4926
      4925      4924      4927      4926      4924      4927      4927      4930      4931
      4927      4930      4932      4927      4930      4933      4928      4927      4929
      4928      4927      4930      4929      4927      4930      4930      4933      4934
      4930      4933      4935      4930      4933      4939      4931      4930      4932
      4931      4930      4933      4932      4930      4933      4933      4935      4936
      4933      4935      4937      4933      4935      4938      4933      4939      4940
      4933      4939      4941      4933      4939      4942      4934      4933      4935
      4934      4933      4939      4935      4933      4939      4936      4935      4937
      4936      4935      4938      4937      4935      4938      4940      4939      4941
      4940      4939      4942      4941      4939      4942      4943      4944      4945
      4943      4944      4946      4943      4944      4959      4943      4947      4948
      4943      4947      4949      4943      4947      4950      4943      4951      4952
      4943      4951      4953      4943      4951      4954      4943      4955      4956
      4943      4955      4957      4943      4955      4958      4944      4943      4947
      4944      4943      4951      4944      4943      4955      4944      4959      4960
      4944      4959      4961      4944      4959      4965      4945      4944      4946
      4945      4944      4959      4946      4944      4959      4947      4943      4951
      4947      4943      4955      4948      4947      4949      4948      4947      4950
      4949      4947      4950      4951      4943      4955      4952      4951      4953
      4952      4951      4954      4953      4951      4954      4956      4955      4957
      4956      4955      4958      4957      4955      4958      4959      4965      4962
      4960      4959      4961      4960      4959      4965      4961      4959      4965
      4962      4966      4967      4963      4962      4964      4963      4962      4965
      4963      4962      4966      4964      4962      4965      4964      4962      4966
      4965      4962      4966      4966      4967      4968      4966      4967      4969
      4966      4967      4970      4967      4970      4971      4967      4970      4972
      4967      4970      4978      4968      4967      4969      4968      4967      4970
      4969      4967      4970      4970      4972      4973      4970      4978      4979
      4970      4978      4980      4970      4978      4981      4971      4970      4972
      4971      4970      4978      4972      4970      4978      4972      4973      4974
      4972      4973      4975      4973      4975      4976      4973      4975      4977
      4973      4975      4987      4974      4973      4975      4975      4987      4988
      4975      4987      4989      4975      4987      4990      4976      4975      4977
      4976      4975      4987      4977      4975      4987      4978      4981      4982
      4979      4978      4980      4979      4978      4981      4980      4978      4981
      4981      4982      4983      4981      4982      4984      4982      4984      4985
      4982      4984      4986      4982      4984      5034      4983      4982      4984
      4984      5034      5035      4984      5034      5036      4984      5034      5037
      4985      4984      4986      4985      4984      5034      4986      4984      5034
      4987      4990      4991      4987      4990      4992      4987      4990      4993
      4988      4987      4989      4988      4987      4990      4989      4987      4990
      4990      4993      4994      4990      4993      4995      4991      4990      4992
      4991      4990      4993      4992      4990      4993      4993      4995      4996
      4993      4995      4997      4994      4993      4995      4995      4997      4998
      4995      4997      4999      4995      4997      5000      4996      4995      4997
      4997      5000      5001      4997      5000      5002      4998      4997      4999
      4998      4997      5000      4999      4997      5000      5000      5002      5003
      5000      5002      5004      5001      5000      5002      5002      5004      5005
      5002      5004      5006      5002      5004      5007      5003      5002      5004
      5004      5007      5008      5004      5007      5009      5005      5004      5006
      5005      5004      5007      5006      5004      5007      5007      5009      5010
      5007      5009      5011      5008      5007      5009      5009      5011      5012
      5009      5011      5013      5009      5011      5014      5010      5009      5011
      5011      5014      5015      5011      5014      5016      5012      5011      5013
      5012      5011      5014      5013      5011      5014      5014      5016      5017
      5014      5016      5018      5015      5014      5016      5016      5018      5019
      5016      5018      5020      5016      5018      5021      5017      5016      5018
      5018      5021      5022      5018      5021      5023      5018      5021      5024
      5019      5018      5020      5019      5018      5021      5020      5018      5021
      5021      5024      5025      5021      5024      5026      5021      5024      5027
      5022      5021      5023      5022      5021      5024      5023      5021      5024
      5024      5027      5028      5024      5027      5029      5024      5027      5030
      5025      5024      5026      5025      5024      5027      5026      5024      5027
      5027      5030      5031      5027      5030      5032      5027      5030      5033
      5028      5027      5029      5028      5027      5030      5029      5027      5030
      5031      5030      5032      5031      5030      5033      5032      5030      5033
      5034      5037      5038      5034      5037      5039      5034      5037      5040
      5035      5034      5036      5035      5034      5037      5036      5034      5037
      5037      5040      5041      5037      5040      5042      5037      5040      5043
      5038      5037      5039      5038      5037      5040      5039      5037      5040
      5040      5043      5044      5040      5043      5045      5040      5043      5046
      5041      5040      5042      5041      5040      5043      5042      5040      5043
      5043      5046      5047      5043      5046      5048      5043      5046      5049
      5044      5043      5045      5044      5043      5046      5045      5043      5046
      5046      5049      5050      5046      5049      5051      5046      5049      5052
      5047      5046      5048      5047      5046      5049      5048      5046      5049
      5049      5052      5053      5049      5052      5054      5049      5052      5055
      5050      5049      5051      5050      5049      5052      5051      5049      5052
      5052      5055      5056      5052      5055      5057      5052      5055      5058
      5053      5052      5054      5053      5052      5055      5054      5052      5055
      5055      5058      5059      5055      5058      5060      5055      5058      5061
      5056      5055      5057      5056      5055      5058      5057      5055      5058
      5058      5061      5062      5058      5061      5063      5058      5061      5064
      5059      5058      5060      5059      5058      5061      5060      5058      5061
      5061      5064      5065      5061      5064      5066      5061      5064      5067
      5062      5061      5063      5062      5061      5064      5063      5061      5064
      5064      5067      5068      5064      5067      5069      5064      5067      5070
      5065      5064      5066      5065      5064      5067      5066      5064      5067
      5067      5070      5071      5067      5070      5072      5067      5070      5073
      5068      5067      5069      5068      5067      5070      5069      5067      5070
      5070      5073      5074      5070      5073      5075      5070      5073      5076
      5071      5070      5072      5071      5070      5073      5072      5070      5073
      5073      5076      5077      5073      5076      5078      5073      5076      5079
      5074      5073      5075      5074      5073      5076      5075      5073      5076
      5076      5079      5080      5076      5079      5081      5076      5079      5082
      5077      5076      5078      5077      5076      5079      5078      5076      5079
      5080      5079      5081      5080      5079      5082      5081      5079      5082
      5083      5085      5086      5083      5087      5088      5083      5087      5089
      5083      5087      5090      5083      5129      5126      5083      5129      5130
      5083      5129      5131      5084      5083      5085      5084      5083      5087
      5084      5083      5129      5085      5083      5087      5085      5083      5129
      5087      5083      5129      5087      5090      5091      5087      5090      5121
      5088      5087      5089      5088      5087      5090      5089      5087      5090
      5090      5091      5092      5090      5091      5093      5090      5121      5119
      5090      5121      5122      5090      5121      5126      5091      5090      5121
      5091      5093      5094      5091      5093      5095      5091      5093      5096
      5092      5091      5093      5093      5096      5097      5093      5096      5098
      5093      5096      5119      5094      5093      5095      5094      5093      5096
      5095      5093      5096      5096      5098      5099      5096      5098      5100
      5096      5098      5108      5096      5119      5116      5096      5119      5120
      5096      5119      5121      5097      5096      5098      5097      5096      5119
      5098      5096      5119      5098      5100      5101      5098      5100      5102
      5098      5100      5103      5098      5108      5106      5098      5108      5109
      5098      5108      5113      5099      5098      5100      5099      5098      5108
      5100      5098      5108      5100      5103      5104      5100      5103      5105
      5100      5103      5106      5101      5100      5102      5101      5100      5103
      5102      5100      5103      5103      5106      5107      5103      5106      5108
      5103      5106      5132      5104      5103      5105      5104      5103      5106
      5105      5103      5106      5106      5108      5109      5106      5108      5113
      5106      5132      5133      5106      5132      5134      5106      5132      5138
      5107      5106      5108      5107      5106      5132      5108      5106      5132
      5108      5109      5110      5108      5109      5111      5108      5109      5112
      5108      5113      5114      5108      5113      5115      5108      5113      5116
      5109      5108      5113      5110      5109      5111      5110      5109      5112
      5111      5109      5112      5113      5116      5117      5113      5116      5118
      5113      5116      5119      5114      5113      5115      5114      5113      5116
      5115      5113      5116      5116      5119      5120      5116      5119      5121
      5117      5116      5118      5117      5116      5119      5118      5116      5119
      5119      5121      5122      5119      5121      5126      5120      5119      5121
      5121      5122      5123      5121      5122      5124      5121      5122      5125
      5121      5126      5127      5121      5126      5128      5121      5126      5129
      5122      5121      5126      5123      5122      5124      5123      5122      5125
      5124      5122      5125      5126      5129      5130      5126      5129      5131
      5127      5126      5128      5127      5126      5129      5128      5126      5129
      5130      5129      5131      5132      5134      5135      5132      5134      5136
      5132      5134      5137      5132      5138      5139      5132      5138      5140
      5132      5138      5141      5133      5132      5134      5133      5132      5138
      5134      5132      5138      5135      5134      5136      5135      5134      5137
      5136      5134      5137      5138      5141      5142      5138      5141      5143
      5138      5141      5144      5139      5138      5140      5139      5138      5141
      5140      5138      5141      5141      5144      5145      5141      5144      5146
      5141      5144      5147      5142      5141      5143      5142      5141      5144
      5143      5141      5144      5144      5147      5148      5144      5147      5149
      5144      5147      5153      5145      5144      5146      5145      5144      5147
      5146      5144      5147      5147      5149      5150      5147      5149      5151
      5147      5149      5152      5147      5153      5154      5147      5153      5155
      5147      5153      5156      5148      5147      5149      5148      5147      5153
      5149      5147      5153      5150      5149      5151      5150      5149      5152
      5151      5149      5152      5154      5153      5155      5154      5153      5156
      5155      5153      5156      5157      5158      5159      5157      5158      5160
      5157      5158      5161      5157      5162      5163      5157      5162      5164
      5157      5162      5165      5157      5166      5167      5157      5166      5168
      5157      5166      5169      5157      5170      5171      5157      5170      5172
      5157      5170      5173      5158      5157      5162      5158      5157      5166
      5158      5157      5170      5159      5158      5160      5159      5158      5161
      5160      5158      5161      5162      5157      5166      5162      5157      5170
      5163      5162      5164      5163      5162      5165      5164      5162      5165
      5166      5157      5170      5167      5166      5168      5167      5166      5169
      5168      5166      5169      5170      5173      5174      5170      5173      5175
      5170      5173      5179      5171      5170      5172      5171      5170      5173
      5172      5170      5173      5173      5179      5176      5174      5173      5175
      5174      5173      5179      5175      5173      5179      5176      5180      5181
      5177      5176      5178      5177      5176      5179      5177      5176      5180
      5178      5176      5179      5178      5176      5180      5179      5176      5180
      5180      5181      5182      5180      5181      5183      5180      5181      5184
      5181      5184      5185      5181      5184      5186      5181      5184      5192
      5182      5181      5183      5182      5181      5184      5183      5181      5184
      5184      5186      5187      5184      5192      5193      5184      5192      5194
      5184      5192      5195      5185      5184      5186      5185      5184      5192
      5186      5184      5192      5186      5187      5188      5186      5187      5189
      5187      5189      5190      5187      5189      5191      5187      5189      5201
      5188      5187      5189      5189      5201      5202      5189      5201      5203
      5189      5201      5204      5190      5189      5191      5190      5189      5201
      5191      5189      5201      5192      5195      5196      5193      5192      5194
      5193      5192      5195      5194      5192      5195      5195      5196      5197
      5195      5196      5198      5196      5198      5199      5196      5198      5200
      5196      5198      5246      5197      5196      5198      5198      5246      5247
      5198      5246      5248      5198      5246      5249      5199      5198      5200
      5199      5198      5246      5200      5198      5246      5201      5204      5205
      5201      5204      5206      5201      5204      5207      5202      5201      5203
      5202      5201      5204      5203      5201      5204      5204      5207      5208
      5204      5207      5209      5204      5207      5210      5205      5204      5206
      5205      5204      5207      5206      5204      5207      5207      5210      5211
      5207      5210      5212      5207      5210      5213      5208      5207      5209
      5208      5207      5210      5209      5207      5210      5210      5213      5214
      5210      5213      5215      5210      5213      5216      5211      5210      5212
      5211      5210      5213      5212      5210      5213      5213      5216      5217
      5213      5216      5218      5213      5216      5219      5214      5213      5215
      5214      5213      5216      5215      5213      5216      5216      5219      5220
      5216      5219      5221      5217      5216      5218      5217      5216      5219
      5218      5216      5219      5219      5221      5222      5219      5221      5223
      5220      5219      5221      5221      5223      5224      5221      5223      5225
      5221      5223      5226      5222      5221      5223      5223      5226      5227
      5223      5226      5228      5224      5223      5225      5224      5223      5226
      5225      5223      5226      5226      5228      5229      5226      5228      5230
      5227      5226      5228      5228      5230      5231      5228      5230      5232
      5228      5230      5233      5229      5228      5230      5230      5233      5234
      5230      5233      5235      5230      5233      5236      5231      5230      5232
      5231      5230      5233      5232      5230      5233      5233      5236      5237
      5233      5236      5238      5233      5236      5239      5234      5233      5235
      5234      5233      5236      5235      5233      5236      5236      5239      5240
      5236      5239      5241      5236      5239      5242      5237      5236      5238
      5237      5236      5239      5238      5236      5239      5239      5242      5243
      5239      5242      5244      5239      5242      5245      5240      5239      5241
      5240      5239      5242      5241      5239      5242      5243      5242      5244
      5243      5242      5245      5244      5242      5245      5246      5249      5250
      5246      5249      5251      5246      5249      5252      5247      5246      5248
      5247      5246      5249      5248      5246      5249      5249      5252      5253
      5249      5252      5254      5249      5252      5255      5250      5249      5251
      5250      5249      5252      5251      5249      5252      5252      5255      5256
      5252      5255      5257      5252      5255      5258      5253      5252      5254
      5253      5252      5255      5254      5252      5255      5255      5258      5259
      5255      5258      5260      5255      5258      5261      5256      5255      5257
      5256      5255      5258      5257      5255      5258      5258      5261      5262
      5258      5261      5263      5258      5261      5264      5259      5258      5260
      5259      5258      5261      5260      5258      5261      5261      5264      5265
      5261      5264      5266      5261      5264      5267      5262      5261      5263
      5262      5261      5264      5263      5261      5264      5264      5267      5268
      5264      5267      5269      5264      5267      5270      5265      5264      5266
      5265      5264      5267      5266      5264      5267      5267      5270      5271
      5267      5270      5272      5267      5270      5273      5268      5267      5269
      5268      5267      5270      5269      5267      5270      5270      5273      5274
      5270      5273      5275      5270      5273      5276      5271      5270      5272
      5271      5270      5273      5272      5270      5273      5273      5276      5277
      5273      5276      5278      5273      5276      5279      5274      5273      5275
      5274      5273      5276      5275      5273      5276      5276      5279      5280
      5276      5279      5281      5276      5279      5282      5277      5276      5278
      5277      5276      5279      5278      5276      5279      5279      5282      5283
      5279      5282      5284      5279      5282      5285      5280      5279      5281
      5280      5279      5282      5281      5279      5282      5282      5285      5286
      5282      5285      5287      5282      5285      5288      5283      5282      5284
      5283      5282      5285      5284      5282      5285      5285      5288      5289
      5285      5288      5290      5285      5288      5291      5286      5285      5287
      5286      5285      5288      5287      5285      5288      5288      5291      5292
      5288      5291      5293      5288      5291      5294      5289      5288      5290
      5289      5288      5291      5290      5288      5291      5292      5291      5293
      5292      5291      5294      5293      5291      5294      5295      5297      5298
      5295      5299      5300      5295      5299      5301      5295      5299      5302
      5295      5341      5338      5295      5341      5342      5295      5341      5343
      5296      5295      5297      5296      5295      5299      5296      5295      5341
      5297      5295      5299      5297      5295      5341      5299      5295      5341
      5299      5302      5303      5299      5302      5333      5300      5299      5301
      5300      5299      5302      5301      5299      5302      5302      5303      5304
      5302      5303      5305      5302      5333      5331      5302      5333      5334
      5302      5333      5338      5303      5302      5333      5303      5305      5306
      5303      5305      5307      5303      5305      5308      5304      5303      5305
      5305      5308      5309      5305      5308      5310      5305      5308      5331
      5306      5305      5307      5306      5305      5308      5307      5305      5308
      5308      5310      5311      5308      5310      5312      5308      5310      5320
      5308      5331      5328      5308      5331      5332      5308      5331      5333
      5309      5308      5310      5309      5308      5331      5310      5308      5331
      5310      5312      5313      5310      5312      5314      5310      5312      5315
      5310      5320      5318      5310      5320      5321      5310      5320      5325
      5311      5310      5312      5311      5310      5320      5312      5310      5320
      5312      5315      5316      5312      5315      5317      5312      5315      5318
      5313      5312      5314      5313      5312      5315      5314      5312      5315
      5315      5318      5319      5315      5318      5320      5315      5318      5344
      5316      5315      5317      5316      5315      5318      5317      5315      5318
      5318      5320      5321      5318      5320      5325      5318      5344      5345
      5318      5344      5346      5318      5344      5350      5319      5318      5320
      5319      5318      5344      5320      5318      5344      5320      5321      5322
      5320      5321      5323      5320      5321      5324      5320      5325      5326
      5320      5325      5327      5320      5325      5328      5321      5320      5325
      5322      5321      5323      5322      5321      5324      5323      5321      5324
      5325      5328      5329      5325      5328      5330      5325      5328      5331
      5326      5325      5327      5326      5325      5328      5327      5325      5328
      5328      5331      5332      5328      5331      5333      5329      5328      5330
      5329      5328      5331      5330      5328      5331      5331      5333      5334
      5331      5333      5338      5332      5331      5333      5333      5334      5335
      5333      5334      5336      5333      5334      5337      5333      5338      5339
      5333      5338      5340      5333      5338      5341      5334      5333      5338
      5335      5334      5336      5335      5334      5337      5336      5334      5337
      5338      5341      5342      5338      5341      5343      5339      5338      5340
      5339      5338      5341      5340      5338      5341      5342      5341      5343
      5344      5346      5347      5344      5346      5348      5344      5346      5349
      5344      5350      5351      5344      5350      5352      5344      5350      5353
      5345      5344      5346      5345      5344      5350      5346      5344      5350
      5347      5346      5348      5347      5346      5349      5348      5346      5349
      5350      5353      5354      5350      5353      5355      5350      5353      5356
      5351      5350      5352      5351      5350      5353      5352      5350      5353
      5353      5356      5357      5353      5356      5358      5353      5356      5359
      5354      5353      5355      5354      5353      5356      5355      5353      5356
      5356      5359      5360      5356      5359      5361      5356      5359      5365
      5357      5356      5358      5357      5356      5359      5358      5356      5359
      5359      5361      5362      5359      5361      5363      5359      5361      5364
      5359      5365      5366      5359      5365      5367      5359      5365      5368
      5360      5359      5361      5360      5359      5365      5361      5359      5365
      5362      5361      5363      5362      5361      5364      5363      5361      5364
      5366      5365      5367      5366      5365      5368      5367      5365      5368
      5369      5370      5371      5369      5370      5372      5369      5370      5373
      5369      5374      5375      5369      5374      5376      5369      5374      5377
      5369      5378      5379      5369      5378      5380      5369      5378      5381
      5369      5382      5383      5369      5382      5384      5369      5382      5385
      5370      5369      5374      5370      5369      5378      5370      5369      5382
      5371      5370      5372      5371      5370      5373      5372      5370      5373
      5374      5369      5378      5374      5369      5382      5375      5374      5376
      5375      5374      5377      5376      5374      5377      5378      5369      5382
      5379      5378      5380      5379      5378      5381      5380      5378      5381
      5382      5385      5386      5382      5385      5387      5382      5385      5391
      5383      5382      5384      5383      5382      5385      5384      5382      5385
      5385      5391      5388      5386      5385      5387      5386      5385      5391
      5387      5385      5391      5388      5392      5393      5389      5388      5390
      5389      5388      5391      5389      5388      5392      5390      5388      5391
      5390      5388      5392      5391      5388      5392      5392      5393      5394
      5392      5393      5395      5392      5393      5396      5393      5396      5397
      5393      5396      5398      5393      5396      5404      5394      5393      5395
      5394      5393      5396      5395      5393      5396      5396      5398      5399
      5396      5404      5405      5396      5404      5406      5396      5404      5407
      5397      5396      5398      5397      5396      5404      5398      5396      5404
      5398      5399      5400      5398      5399      5401      5399      5401      5402
      5399      5401      5403      5399      5401      5413      5400      5399      5401
      5401      5413      5414      5401      5413      5415      5401      5413      5416
      5402      5401      5403      5402      5401      5413      5403      5401      5413
      5404      5407      5408      5405      5404      5406      5405      5404      5407
      5406      5404      5407      5407      5408      5409      5407      5408      5410
      5408      5410      5411      5408      5410      5412      5408      5410      5458
      5409      5408      5410      5410      5458      5459      5410      5458      5460
      5410      5458      5461      5411      5410      5412      5411      5410      5458
      5412      5410      5458      5413      5416      5417      5413      5416      5418
      5413      5416      5419      5414      5413      5415      5414      5413      5416
      5415      5413      5416      5416      5419      5420      5416      5419      5421
      5416      5419      5422      5417      5416      5418      5417      5416      5419
      5418      5416      5419      5419      5422      5423      5419      5422      5424
      5419      5422      5425      5420      5419      5421      5420      5419      5422
      5421      5419      5422      5422      5425      5426      5422      5425      5427
      5422      5425      5428      5423      5422      5424      5423      5422      5425
      5424      5422      5425      5425      5428      5429      5425      5428      5430
      5425      5428      5431      5426      5425      5427      5426      5425      5428
      5427      5425      5428      5428      5431      5432      5428      5431      5433
      5429      5428      5430      5429      5428      5431      5430      5428      5431
      5431      5433      5434      5431      5433      5435      5432      5431      5433
      5433      5435      5436      5433      5435      5437      5433      5435      5438
      5434      5433      5435      5435      5438      5439      5435      5438      5440
      5436      5435      5437      5436      5435      5438      5437      5435      5438
      5438      5440      5441      5438      5440      5442      5439      5438      5440
      5440      5442      5443      5440      5442      5444      5440      5442      5445
      5441      5440      5442      5442      5445      5446      5442      5445      5447
      5442      5445      5448      5443      5442      5444      5443      5442      5445
      5444      5442      5445      5445      5448      5449      5445      5448      5450
      5445      5448      5451      5446      5445      5447      5446      5445      5448
      5447      5445      5448      5448      5451      5452      5448      5451      5453
      5448      5451      5454      5449      5448      5450      5449      5448      5451
      5450      5448      5451      5451      5454      5455      5451      5454      5456
      5451      5454      5457      5452      5451      5453      5452      5451      5454
      5453      5451      5454      5455      5454      5456      5455      5454      5457
      5456      5454      5457      5458      5461      5462      5458      5461      5463
      5458      5461      5464      5459      5458      5460      5459      5458      5461
      5460      5458      5461      5461      5464      5465      5461      5464      5466
      5461      5464      5467      5462      5461      5463      5462      5461      5464
      5463      5461      5464      5464      5467      5468      5464      5467      5469
      5464      5467      5470      5465      5464      5466      5465      5464      5467
      5466      5464      5467      5467      5470      5471      5467      5470      5472
      5467      5470      5473      5468      5467      5469      5468      5467      5470
      5469      5467      5470      5470      5473      5474      5470      5473      5475
      5470      5473      5476      5471      5470      5472      5471      5470      5473
      5472      5470      5473      5473      5476      5477      5473      5476      5478
      5473      5476      5479      5474      5473      5475      5474      5473      5476
      5475      5473      5476      5476      5479      5480      5476      5479      5481
      5476      5479      5482      5477      5476      5478      5477      5476      5479
      5478      5476      5479      5479      5482      5483      5479      5482      5484
      5479      5482      5485      5480      5479      5481      5480      5479      5482
      5481      5479      5482      5482      5485      5486      5482      5485      5487
      5482      5485      5488      5483      5482      5484      5483      5482      5485
      5484      5482      5485      5485      5488      5489      5485      5488      5490
      5485      5488      5491      5486      5485      5487      5486      5485      5488
      5487      5485      5488      5488      5491      5492      5488      5491      5493
      5488      5491      5494      5489      5488      5490      5489      5488      5491
      5490      5488      5491      5491      5494      5495      5491      5494      5496
      5491      5494      5497      5492      5491      5493      5492      5491      5494
      5493      5491      5494      5494      5497      5498      5494      5497      5499
      5494      5497      5500      5495      5494      5496      5495      5494      5497
      5496      5494      5497      5497      5500      5501      5497      5500      5502
      5497      5500      5503      5498      5497      5499      5498      5497      5500
      5499      5497      5500      5500      5503      5504      5500      5503      5505
      5500      5503      5506      5501      5500      5502      5501      5500      5503
      5502      5500      5503      5504      5503      5505      5504      5503      5506
      5505      5503      5506      5507      5509      5510      5507      5511      5512
      5507      5511      5513      5507      5511      5514      5507      5553      5550
      5507      5553      5554      5507      5553      5555      5508      5507      5509
      5508      5507      5511      5508      5507      5553      5509      5507      5511
      5509      5507      5553      5511      5507      5553      5511      5514      5515
      5511      5514      5545      5512      5511      5513      5512      5511      5514
      5513      5511      5514      5514      5515      5516      5514      5515      5517
      5514      5545      5543      5514      5545      5546      5514      5545      5550
      5515      5514      5545      5515      5517      5518      5515      5517      5519
      5515      5517      5520      5516      5515      5517      5517      5520      5521
      5517      5520      5522      5517      5520      5543      5518      5517      5519
      5518      5517      5520      5519      5517      5520      5520      5522      5523
      5520      5522      5524      5520      5522      5532      5520      5543      5540
      5520      5543      5544      5520      5543      5545      5521      5520      5522
      5521      5520      5543      5522      5520      5543      5522      5524      5525
      5522      5524      5526      5522      5524      5527      5522      5532      5530
      5522      5532      5533      5522      5532      5537      5523      5522      5524
      5523      5522      5532      5524      5522      5532      5524      5527      5528
      5524      5527      5529      5524      5527      5530      5525      5524      5526
      5525      5524      5527      5526      5524      5527      5527      5530      5531
      5527      5530      5532      5527      5530      5556      5528      5527      5529
      5528      5527      5530      5529      5527      5530      5530      5532      5533
      5530      5532      5537      5530      5556      5557      5530      5556      5558
      5530      5556      5562      5531      5530      5532      5531      5530      5556
      5532      5530      5556      5532      5533      5534      5532      5533      5535
      5532      5533      5536      5532      5537      5538      5532      5537      5539
      5532      5537      5540      5533      5532      5537      5534      5533      5535
      5534      5533      5536      5535      5533      5536      5537      5540      5541
      5537      5540      5542      5537      5540      5543      5538      5537      5539
      5538      5537      5540      5539      5537      5540      5540      5543      5544
      5540      5543      5545      5541      5540      5542      5541      5540      5543
      5542      5540      5543      5543      5545      5546      5543      5545      5550
      5544      5543      5545      5545      5546      5547      5545      5546      5548
      5545      5546      5549      5545      5550      5551      5545      5550      5552
      5545      5550      5553      5546      5545      5550      5547      5546      5548
      5547      5546      5549      5548      5546      5549      5550      5553      5554
      5550      5553      5555      5551      5550      5552      5551      5550      5553
      5552      5550      5553      5554      5553      5555      5556      5558      5559
      5556      5558      5560      5556      5558      5561      5556      5562      5563
      5556      5562      5564      5556      5562      5565      5557      5556      5558
      5557      5556      5562      5558      5556      5562      5559      5558      5560
      5559      5558      5561      5560      5558      5561      5562      5565      5566
      5562      5565      5567      5562      5565      5568      5563      5562      5564
      5563      5562      5565      5564      5562      5565      5565      5568      5569
      5565      5568      5570      5565      5568      5571      5566      5565      5567
      5566      5565      5568      5567      5565      5568      5568      5571      5572
      5568      5571      5573      5568      5571      5577      5569      5568      5570
      5569      5568      5571      5570      5568      5571      5571      5573      5574
      5571      5573      5575      5571      5573      5576      5571      5577      5578
      5571      5577      5579      5571      5577      5580      5572      5571      5573
      5572      5571      5577      5573      5571      5577      5574      5573      5575
      5574      5573      5576      5575      5573      5576      5578      5577      5579
      5578      5577      5580      5579      5577      5580      5581      5582      5583
      5581      5582      5584      5581      5582      5585      5581      5586      5587
      5581      5586      5588      5581      5586      5589      5581      5590      5591
      5581      5590      5592      5581      5590      5593      5581      5594      5595
      5581      5594      5596      5581      5594      5597      5582      5581      5586
      5582      5581      5590      5582      5581      5594      5583      5582      5584
      5583      5582      5585      5584      5582      5585      5586      5581      5590
      5586      5581      5594      5587      5586      5588      5587      5586      5589
      5588      5586      5589      5590      5581      5594      5591      5590      5592
      5591      5590      5593      5592      5590      5593      5594      5597      5598
      5594      5597      5599      5594      5597      5604      5595      5594      5596
      5595      5594      5597      5596      5594      5597      5597      5604      5600
      5598      5597      5599      5598      5597      5604      5599      5597      5604
      5600      5603      5605      5601      5600      5602      5601      5600      5603
      5601      5600      5604      5602      5600      5603      5602      5600      5604
      5603      5600      5604      5603      5605      5606      5603      5605      5607
      5603      5605      5610      5605      5610      5608      5605      5610      5611
      5605      5610      5612      5606      5605      5607      5606      5605      5610
      5607      5605      5610      5608      5610      5611      5608      5610      5612
      5608      5660      5661      5608      5660      5662      5609      5608      5610
      5609      5608      5660      5610      5608      5660      5610      5612      5613
      5610      5612      5614      5610      5612      5616      5611      5610      5612
      5612      5614      5615      5612      5616      5617      5612      5616      5618
      5613      5612      5614      5613      5612      5616      5614      5612      5616
      5616      5618      5619      5616      5618      5620      5617      5616      5618
      5618      5620      5621      5618      5620      5622      5618      5620      5623
      5619      5618      5620      5620      5623      5624      5620      5623      5625
      5620      5623      5626      5621      5620      5622      5621      5620      5623
      5622      5620      5623      5623      5626      5627      5623      5626      5628
      5623      5626      5629      5624      5623      5625      5624      5623      5626
      5625      5623      5626      5626      5629      5630      5626      5629      5631
      5626      5629      5632      5627      5626      5628      5627      5626      5629
      5628      5626      5629      5629      5632      5633      5629      5632      5634
      5629      5632      5635      5630      5629      5631      5630      5629      5632
      5631      5629      5632      5632      5635      5636      5632      5635      5637
      5632      5635      5638      5633      5632      5634      5633      5632      5635
      5634      5632      5635      5635      5638      5639      5635      5638      5640
      5635      5638      5641      5636      5635      5637      5636      5635      5638
      5637      5635      5638      5638      5641      5642      5638      5641      5643
      5638      5641      5644      5639      5638      5640      5639      5638      5641
      5640      5638      5641      5641      5644      5645      5641      5644      5646
      5641      5644      5647      5642      5641      5643      5642      5641      5644
      5643      5641      5644      5644      5647      5648      5644      5647      5649
      5644      5647      5650      5645      5644      5646      5645      5644      5647
      5646      5644      5647      5647      5650      5651      5647      5650      5652
      5647      5650      5653      5648      5647      5649      5648      5647      5650
      5649      5647      5650      5650      5653      5654      5650      5653      5655
      5650      5653      5656      5651      5650      5652      5651      5650      5653
      5652      5650      5653      5653      5656      5657      5653      5656      5658
      5653      5656      5659      5654      5653      5655      5654      5653      5656
      5655      5653      5656      5657      5656      5658      5657      5656      5659
      5658      5656      5659      5660      5662      5663      5660      5662      5664
      5660      5662      5665      5661      5660      5662      5662      5665      5666
      5662      5665      5667      5662      5665      5668      5663      5662      5664
      5663      5662      5665      5664      5662      5665      5665      5668      5669
      5665      5668      5670      5665      5668      5671      5666      5665      5667
      5666      5665      5668      5667      5665      5668      5668      5671      5672
      5668      5671      5673      5668      5671      5674      5669      5668      5670
      5669      5668      5671      5670      5668      5671      5671      5674      5675
      5671      5674      5676      5671      5674      5677      5672      5671      5673
      5672      5671      5674      5673      5671      5674      5674      5677      5678
      5674      5677      5679      5674      5677      5680      5675      5674      5676
      5675      5674      5677      5676      5674      5677      5677      5680      5681
      5677      5680      5682      5677      5680      5683      5678      5677      5679
      5678      5677      5680      5679      5677      5680      5680      5683      5684
      5680      5683      5685      5681      5680      5682      5681      5680      5683
      5682      5680      5683      5683      5685      5686      5683      5685      5687
      5684      5683      5685      5685      5687      5688      5685      5687      5689
      5685      5687      5690      5686      5685      5687      5687      5690      5691
      5687      5690      5692      5687      5690      5693      5688      5687      5689
      5688      5687      5690      5689      5687      5690      5690      5693      5694
      5690      5693      5695      5690      5693      5696      5691      5690      5692
      5691      5690      5693      5692      5690      5693      5693      5696      5697
      5693      5696      5698      5693      5696      5699      5694      5693      5695
      5694      5693      5696      5695      5693      5696      5696      5699      5700
      5696      5699      5701      5696      5699      5702      5697      5696      5698
      5697      5696      5699      5698      5696      5699      5699      5702      5703
      5699      5702      5704      5699      5702      5705      5700      5699      5701
      5700      5699      5702      5701      5699      5702      5702      5705      5706
      5702      5705      5707      5702      5705      5708      5703      5702      5704
      5703      5702      5705      5704      5702      5705      5705      5708      5709
      5705      5708      5710      5705      5708      5711      5706      5705      5707
      5706      5705      5708      5707      5705      5708      5709      5708      5710
      5709      5708      5711      5710      5708      5711      5712      5714      5715
      5712      5716      5717      5712      5716      5718      5712      5716      5719
      5712      5758      5755      5712      5758      5759      5712      5758      5760
      5713      5712      5714      5713      5712      5716      5713      5712      5758
      5714      5712      5716      5714      5712      5758      5716      5712      5758
      5716      5719      5720      5716      5719      5750      5717      5716      5718
      5717      5716      5719      5718      5716      5719      5719      5720      5721
      5719      5720      5722      5719      5750      5748      5719      5750      5751
      5719      5750      5755      5720      5719      5750      5720      5722      5723
      5720      5722      5724      5720      5722      5725      5721      5720      5722
      5722      5725      5726      5722      5725      5727      5722      5725      5748
      5723      5722      5724      5723      5722      5725      5724      5722      5725
      5725      5727      5728      5725      5727      5729      5725      5727      5737
      5725      5748      5745      5725      5748      5749      5725      5748      5750
      5726      5725      5727      5726      5725      5748      5727      5725      5748
      5727      5729      5730      5727      5729      5731      5727      5729      5732
      5727      5737      5735      5727      5737      5738      5727      5737      5742
      5728      5727      5729      5728      5727      5737      5729      5727      5737
      5729      5732      5733      5729      5732      5734      5729      5732      5735
      5730      5729      5731      5730      5729      5732      5731      5729      5732
      5732      5735      5736      5732      5735      5737      5732      5735      5761
      5733      5732      5734      5733      5732      5735      5734      5732      5735
      5735      5737      5738      5735      5737      5742      5735      5761      5762
      5735      5761      5763      5735      5761      5767      5736      5735      5737
      5736      5735      5761      5737      5735      5761      5737      5738      5739
      5737      5738      5740      5737      5738      5741      5737      5742      5743
      5737      5742      5744      5737      5742      5745      5738      5737      5742
      5739      5738      5740      5739      5738      5741      5740      5738      5741
      5742      5745      5746      5742      5745      5747      5742      5745      5748
      5743      5742      5744      5743      5742      5745      5744      5742      5745
      5745      5748      5749      5745      5748      5750      5746      5745      5747
      5746      5745      5748      5747      5745      5748      5748      5750      5751
      5748      5750      5755      5749      5748      5750      5750      5751      5752
      5750      5751      5753      5750      5751      5754      5750      5755      5756
      5750      5755      5757      5750      5755      5758      5751      5750      5755
      5752      5751      5753      5752      5751      5754      5753      5751      5754
      5755      5758      5759      5755      5758      5760      5756      5755      5757
      5756      5755      5758      5757      5755      5758      5759      5758      5760
      5761      5763      5764      5761      5763      5765      5761      5763      5766
      5761      5767      5768      5761      5767      5769      5761      5767      5770
      5762      5761      5763      5762      5761      5767      5763      5761      5767
      5764      5763      5765      5764      5763      5766      5765      5763      5766
      5767      5770      5771      5767      5770      5772      5767      5770      5773
      5768      5767      5769      5768      5767      5770      5769      5767      5770
      5770      5773      5774      5770      5773      5775      5770      5773      5776
      5771      5770      5772      5771      5770      5773      5772      5770      5773
      5773      5776      5777      5773      5776      5778      5773      5776      5782
      5774      5773      5775      5774      5773      5776      5775      5773      5776
      5776      5778      5779      5776      5778      5780      5776      5778      5781
      5776      5782      5783      5776      5782      5784      5776      5782      5785
      5777      5776      5778      5777      5776      5782      5778      5776      5782
      5779      5778      5780      5779      5778      5781      5780      5778      5781
      5783      5782      5784      5783      5782      5785      5784      5782      5785
      5786      5787      5788      5786      5787      5789      5786      5787      5790
      5786      5791      5792      5786      5791      5793      5786      5791      5794
      5786      5795      5796      5786      5795      5797      5786      5795      5798
      5786      5799      5800      5786      5799      5801      5786      5799      5802
      5787      5786      5791      5787      5786      5795      5787      5786      5799
      5788      5787      5789      5788      5787      5790      5789      5787      5790
      5791      5786      5795      5791      5786      5799      5792      5791      5793
      5792      5791      5794      5793      5791      5794      5795      5786      5799
      5796      5795      5797      5796      5795      5798      5797      5795      5798
      5799      5802      5803      5799      5802      5804      5799      5802      5809
      5800      5799      5801      5800      5799      5802      5801      5799      5802
      5802      5809      5805      5803      5802      5804      5803      5802      5809
      5804      5802      5809      5805      5808      5810      5806      5805      5807
      5806      5805      5808      5806      5805      5809      5807      5805      5808
      5807      5805      5809      5808      5805      5809      5808      5810      5811
      5808      5810      5812      5808      5810      5815      5810      5815      5813
      5810      5815      5816      5810      5815      5817      5811      5810      5812
      5811      5810      5815      5812      5810      5815      5813      5815      5816
      5813      5815      5817      5813      5865      5866      5813      5865      5867
      5814      5813      5815      5814      5813      5865      5815      5813      5865
      5815      5817      5818      5815      5817      5819      5815      5817      5821
      5816      5815      5817      5817      5819      5820      5817      5821      5822
      5817      5821      5823      5818      5817      5819      5818      5817      5821
      5819      5817      5821      5821      5823      5824      5821      5823      5825
      5822      5821      5823      5823      5825      5826      5823      5825      5827
      5823      5825      5828      5824      5823      5825      5825      5828      5829
      5825      5828      5830      5825      5828      5831      5826      5825      5827
      5826      5825      5828      5827      5825      5828      5828      5831      5832
      5828      5831      5833      5828      5831      5834      5829      5828      5830
      5829      5828      5831      5830      5828      5831      5831      5834      5835
      5831      5834      5836      5831      5834      5837      5832      5831      5833
      5832      5831      5834      5833      5831      5834      5834      5837      5838
      5834      5837      5839      5834      5837      5840      5835      5834      5836
      5835      5834      5837      5836      5834      5837      5837      5840      5841
      5837      5840      5842      5837      5840      5843      5838      5837      5839
      5838      5837      5840      5839      5837      5840      5840      5843      5844
      5840      5843      5845      5840      5843      5846      5841      5840      5842
      5841      5840      5843      5842      5840      5843      5843      5846      5847
      5843      5846      5848      5843      5846      5849      5844      5843      5845
      5844      5843      5846      5845      5843      5846      5846      5849      5850
      5846      5849      5851      5846      5849      5852      5847      5846      5848
      5847      5846      5849      5848      5846      5849      5849      5852      5853
      5849      5852      5854      5849      5852      5855      5850      5849      5851
      5850      5849      5852      5851      5849      5852      5852      5855      5856
      5852      5855      5857      5852      5855      5858      5853      5852      5854
      5853      5852      5855      5854      5852      5855      5855      5858      5859
      5855      5858      5860      5855      5858      5861      5856      5855      5857
      5856      5855      5858      5857      5855      5858      5858      5861      5862
      5858      5861      5863      5858      5861      5864      5859      5858      5860
      5859      5858      5861      5860      5858      5861      5862      5861      5863
      5862      5861      5864      5863      5861      5864      5865      5867      5868
      5865      5867      5869      5865      5867      5870      5866      5865      5867
      5867      5870      5871      5867      5870      5872      5867      5870      5873
      5868      5867      5869      5868      5867      5870      5869      5867      5870
      5870      5873      5874      5870      5873      5875      5870      5873      5876
      5871      5870      5872      5871      5870      5873      5872      5870      5873
      5873      5876      5877      5873      5876      5878      5873      5876      5879
      5874      5873      5875      5874      5873      5876      5875      5873      5876
      5876      5879      5880      5876      5879      5881      5876      5879      5882
      5877      5876      5878      5877      5876      5879      5878      5876      5879
      5879      5882      5883      5879      5882      5884      5879      5882      5885
      5880      5879      5881      5880      5879      5882      5881      5879      5882
      5882      5885      5886      5882      5885      5887      5882      5885      5888
      5883      5882      5884      5883      5882      5885      5884      5882      5885
      5885      5888      5889      5885      5888      5890      5886      5885      5887
      5886      5885      5888      5887      5885      5888      5888      5890      5891
      5888      5890      5892      5889      5888      5890      5890      5892      5893
      5890      5892      5894      5890      5892      5895      5891      5890      5892
      5892      5895      5896      5892      5895      5897      5892      5895      5898
      5893      5892      5894      5893      5892      5895      5894      5892      5895
      5895      5898      5899      5895      5898      5900      5895      5898      5901
      5896      5895      5897      5896      5895      5898      5897      5895      5898
      5898      5901      5902      5898      5901      5903      5898      5901      5904
      5899      5898      5900      5899      5898      5901      5900      5898      5901
      5901      5904      5905      5901      5904      5906      5901      5904      5907
      5902      5901      5903      5902      5901      5904      5903      5901      5904
      5904      5907      5908      5904      5907      5909      5904      5907      5910
      5905      5904      5906      5905      5904      5907      5906      5904      5907
      5907      5910      5911      5907      5910      5912      5907      5910      5913
      5908      5907      5909      5908      5907      5910      5909      5907      5910
      5910      5913      5914      5910      5913      5915      5910      5913      5916
      5911      5910      5912      5911      5910      5913      5912      5910      5913
      5914      5913      5915      5914      5913      5916      5915      5913      5916
      5917      5919      5920      5917      5921      5922      5917      5921      5923
      5917      5921      5924      5917      5963      5960      5917      5963      5964
      5917      5963      5965      5918      5917      5919      5918      5917      5921
      5918      5917      5963      5919      5917      5921      5919      5917      5963
      5921      5917      5963      5921      5924      5925      5921      5924      5955
      5922      5921      5923      5922      5921      5924      5923      5921      5924
      5924      5925      5926      5924      5925      5927      5924      5955      5953
      5924      5955      5956      5924      5955      5960      5925      5924      5955
      5925      5927      5928      5925      5927      5929      5925      5927      5930
      5926      5925      5927      5927      5930      5931      5927      5930      5932
      5927      5930      5953      5928      5927      5929      5928      5927      5930
      5929      5927      5930      5930      5932      5933      5930      5932      5934
      5930      5932      5942      5930      5953      5950      5930      5953      5954
      5930      5953      5955      5931      5930      5932      5931      5930      5953
      5932      5930      5953      5932      5934      5935      5932      5934      5936
      5932      5934      5937      5932      5942      5940      5932      5942      5943
      5932      5942      5947      5933      5932      5934      5933      5932      5942
      5934      5932      5942      5934      5937      5938      5934      5937      5939
      5934      5937      5940      5935      5934      5936      5935      5934      5937
      5936      5934      5937      5937      5940      5941      5937      5940      5942
      5937      5940      5966      5938      5937      5939      5938      5937      5940
      5939      5937      5940      5940      5942      5943      5940      5942      5947
      5940      5966      5967      5940      5966      5968      5940      5966      5972
      5941      5940      5942      5941      5940      5966      5942      5940      5966
      5942      5943      5944      5942      5943      5945      5942      5943      5946
      5942      5947      5948      5942      5947      5949      5942      5947      5950
      5943      5942      5947      5944      5943      5945      5944      5943      5946
      5945      5943      5946      5947      5950      5951      5947      5950      5952
      5947      5950      5953      5948      5947      5949      5948      5947      5950
      5949      5947      5950      5950      5953      5954      5950      5953      5955
      5951      5950      5952      5951      5950      5953      5952      5950      5953
      5953      5955      5956      5953      5955      5960      5954      5953      5955
      5955      5956      5957      5955      5956      5958      5955      5956      5959
      5955      5960      5961      5955      5960      5962      5955      5960      5963
      5956      5955      5960      5957      5956      5958      5957      5956      5959
      5958      5956      5959      5960      5963      5964      5960      5963      5965
      5961      5960      5962      5961      5960      5963      5962      5960      5963
      5964      5963      5965      5966      5968      5969      5966      5968      5970
      5966      5968      5971      5966      5972      5973      5966      5972      5974
      5966      5972      5975      5967      5966      5968      5967      5966      5972
      5968      5966      5972      5969      5968      5970      5969      5968      5971
      5970      5968      5971      5972      5975      5976      5972      5975      5977
      5972      5975      5978      5973      5972      5974      5973      5972      5975
      5974      5972      5975      5975      5978      5979      5975      5978      5980
      5975      5978      5981      5976      5975      5977      5976      5975      5978
      5977      5975      5978      5978      5981      5982      5978      5981      5983
      5978      5981      5987      5979      5978      5980      5979      5978      5981
      5980      5978      5981      5981      5983      5984      5981      5983      5985
      5981      5983      5986      5981      5987      5988      5981      5987      5989
      5981      5987      5990      5982      5981      5983      5982      5981      5987
      5983      5981      5987      5984      5983      5985      5984      5983      5986
      5985      5983      5986      5988      5987      5989      5988      5987      5990
      5989      5987      5990      5991      5993      5994      5991      5995      5996
      5991      5995      5997      5991      5995      5998      5991      6037      6034
      5991      6037      6038      5991      6037      6039      5992      5991      5993
      5992      5991      5995      5992      5991      6037      5993      5991      5995
      5993      5991      6037      5995      5991      6037      5995      5998      5999
      5995      5998      6029      5996      5995      5997      5996      5995      5998
      5997      5995      5998      5998      5999      6000      5998      5999      6001
      5998      6029      6027      5998      6029      6030      5998      6029      6034
      5999      5998      6029      5999      6001      6002      5999      6001      6003
      5999      6001      6004      6000      5999      6001      6001      6004      6005
      6001      6004      6006      6001      6004      6027      6002      6001      6003
      6002      6001      6004      6003      6001      6004      6004      6006      6007
      6004      6006      6008      6004      6006      6016      6004      6027      6024
      6004      6027      6028      6004      6027      6029      6005      6004      6006
      6005      6004      6027      6006      6004      6027      6006      6008      6009
      6006      6008      6010      6006      6008      6011      6006      6016      6014
      6006      6016      6017      6006      6016      6021      6007      6006      6008
      6007      6006      6016      6008      6006      6016      6008      6011      6012
      6008      6011      6013      6008      6011      6014      6009      6008      6010
      6009      6008      6011      6010      6008      6011      6011      6014      6015
      6011      6014      6016      6011      6014      6040      6012      6011      6013
      6012      6011      6014      6013      6011      6014      6014      6016      6017
      6014      6016      6021      6014      6040      6041      6014      6040      6042
      6014      6040      6046      6015      6014      6016      6015      6014      6040
      6016      6014      6040      6016      6017      6018      6016      6017      6019
      6016      6017      6020      6016      6021      6022      6016      6021      6023
      6016      6021      6024      6017      6016      6021      6018      6017      6019
      6018      6017      6020      6019      6017      6020      6021      6024      6025
      6021      6024      6026      6021      6024      6027      6022      6021      6023
      6022      6021      6024      6023      6021      6024      6024      6027      6028
      6024      6027      6029      6025      6024      6026      6025      6024      6027
      6026      6024      6027      6027      6029      6030      6027      6029      6034
      6028      6027      6029      6029      6030      6031      6029      6030      6032
      6029      6030      6033      6029      6034      6035      6029      6034      6036
      6029      6034      6037      6030      6029      6034      6031      6030      6032
      6031      6030      6033      6032      6030      6033      6034      6037      6038
      6034      6037      6039      6035      6034      6036      6035      6034      6037
      6036      6034      6037      6038      6037      6039      6040      6042      6043
      6040      6042      6044      6040      6042      6045      6040      6046      6047
      6040      6046      6048      6040      6046      6049      6041      6040      6042
      6041      6040      6046      6042      6040      6046      6043      6042      6044
      6043      6042      6045      6044      6042      6045      6046      6049      6050
      6046      6049      6051      6046      6049      6052      6047      6046      6048
      6047      6046      6049      6048      6046      6049      6049      6052      6053
      6049      6052      6054      6049      6052      6055      6050      6049      6051
      6050      6049      6052      6051      6049      6052      6052      6055      6056
      6052      6055      6057      6052      6055      6061      6053      6052      6054
      6053      6052      6055      6054      6052      6055      6055      6057      6058
      6055      6057      6059      6055      6057      6060      6055      6061      6062
      6055      6061      6063      6055      6061      6064      6056      6055      6057
      6056      6055      6061      6057      6055      6061      6058      6057      6059
      6058      6057      6060      6059      6057      6060      6062      6061      6063
      6062      6061      6064      6063      6061      6064      6065      6066      6067
      6065      6066      6068      6065      6066      6069      6065      6070      6071
      6065      6070      6072      6065      6070      6073      6065      6074      6075
      6065      6074      6076      6065      6074      6077      6065      6078      6079
      6065      6078      6080      6065      6078      6081      6066      6065      6070
      6066      6065      6074      6066      6065      6078      6067      6066      6068
      6067      6066      6069      6068      6066      6069      6070      6065      6074
      6070      6065      6078      6071      6070      6072      6071      6070      6073
      6072      6070      6073      6074      6065      6078      6075      6074      6076
      6075      6074      6077      6076      6074      6077      6078      6081      6082
      6078      6081      6083      6078      6081      6088      6079      6078      6080
      6079      6078      6081      6080      6078      6081      6081      6088      6084
      6082      6081      6083      6082      6081      6088      6083      6081      6088
      6084      6087      6089      6085      6084      6086      6085      6084      6087
      6085      6084      6088      6086      6084      6087      6086      6084      6088
      6087      6084      6088      6087      6089      6090      6087      6089      6091
      6087      6089      6094      6089      6094      6092      6089      6094      6095
      6089      6094      6096      6090      6089      6091      6090      6089      6094
      6091      6089      6094      6092      6094      6095      6092      6094      6096
      6092      6144      6145      6092      6144      6146      6093      6092      6094
      6093      6092      6144      6094      6092      6144      6094      6096      6097
      6094      6096      6098      6094      6096      6100      6095      6094      6096
      6096      6098      6099      6096      6100      6101      6096      6100      6102
      6097      6096      6098      6097      6096      6100      6098      6096      6100
      6100      6102      6103      6100      6102      6104      6101      6100      6102
      6102      6104      6105      6102      6104      6106      6102      6104      6107
      6103      6102      6104      6104      6107      6108      6104      6107      6109
      6104      6107      6110      6105      6104      6106      6105      6104      6107
      6106      6104      6107      6107      6110      6111      6107      6110      6112
      6107      6110      6113      6108      6107      6109      6108      6107      6110
      6109      6107      6110      6110      6113      6114      6110      6113      6115
      6110      6113      6116      6111      6110      6112      6111      6110      6113
      6112      6110      6113      6113      6116      6117      6113      6116      6118
      6113      6116      6119      6114      6113      6115      6114      6113      6116
      6115      6113      6116      6116      6119      6120      6116      6119      6121
      6116      6119      6122      6117      6116      6118      6117      6116      6119
      6118      6116      6119      6119      6122      6123      6119      6122      6124
      6119      6122      6125      6120      6119      6121      6120      6119      6122
      6121      6119      6122      6122      6125      6126      6122      6125      6127
      6122      6125      6128      6123      6122      6124      6123      6122      6125
      6124      6122      6125      6125      6128      6129      6125      6128      6130
      6125      6128      6131      6126      6125      6127      6126      6125      6128
      6127      6125      6128      6128      6131      6132      6128      6131      6133
      6128      6131      6134      6129      6128      6130      6129      6128      6131
      6130      6128      6131      6131      6134      6135      6131      6134      6136
      6131      6134      6137      6132      6131      6133      6132      6131      6134
      6133      6131      6134      6134      6137      6138      6134      6137      6139
      6134      6137      6140      6135      6134      6136      6135      6134      6137
      6136      6134      6137      6137      6140      6141      6137      6140      6142
      6137      6140      6143      6138      6137      6139      6138      6137      6140
      6139      6137      6140      6141      6140      6142      6141      6140      6143
      6142      6140      6143      6144      6146      6147      6144      6146      6148
      6144      6146      6149      6145      6144      6146      6146      6149      6150
      6146      6149      6151      6146      6149      6152      6147      6146      6148
      6147      6146      6149      6148      6146      6149      6149      6152      6153
      6149      6152      6154      6149      6152      6155      6150      6149      6151
      6150      6149      6152      6151      6149      6152      6152      6155      6156
      6152      6155      6157      6152      6155      6158      6153      6152      6154
      6153      6152      6155      6154      6152      6155      6155      6158      6159
      6155      6158      6160      6155      6158      6161      6156      6155      6157
      6156      6155      6158      6157      6155      6158      6158      6161      6162
      6158      6161      6163      6158      6161      6164      6159      6158      6160
      6159      6158      6161      6160      6158      6161      6161      6164      6165
      6161      6164      6166      6161      6164      6167      6162      6161      6163
      6162      6161      6164      6163      6161      6164      6164      6167      6168
      6164      6167      6169      6165      6164      6166      6165      6164      6167
      6166      6164      6167      6167      6169      6170      6167      6169      6171
      6168      6167      6169      6169      6171      6172      6169      6171      6173
      6169      6171      6174      6170      6169      6171      6171      6174      6175
      6171      6174      6176      6171      6174      6177      6172      6171      6173
      6172      6171      6174      6173      6171      6174      6174      6177      6178
      6174      6177      6179      6174      6177      6180      6175      6174      6176
      6175      6174      6177      6176      6174      6177      6177      6180      6181
      6177      6180      6182      6177      6180      6183      6178      6177      6179
      6178      6177      6180      6179      6177      6180      6180      6183      6184
      6180      6183      6185      6180      6183      6186      6181      6180      6182
      6181      6180      6183      6182      6180      6183      6183      6186      6187
      6183      6186      6188      6183      6186      6189      6184      6183      6185
      6184      6183      6186      6185      6183      6186      6186      6189      6190
      6186      6189      6191      6186      6189      6192      6187      6186      6188
      6187      6186      6189      6188      6186      6189      6189      6192      6193
      6189      6192      6194      6189      6192      6195      6190      6189      6191
      6190      6189      6192      6191      6189      6192      6193      6192      6194
      6193      6192      6195      6194      6192      6195      6196      6197      6198
      6196      6197      6199      6196      6197      6212      6196      6200      6201
      6196      6200      6202      6196      6200      6203      6196      6204      6205
      6196      6204      6206      6196      6204      6207      6196      6208      6209
      6196      6208      6210      6196      6208      6211      6197      6196      6200
      6197      6196      6204      6197      6196      6208      6197      6212      6213
      6197      6212      6214      6197      6212      6218      6198      6197      6199
      6198      6197      6212      6199      6197      6212      6200      6196      6204
      6200      6196      6208      6201      6200      6202      6201      6200      6203
      6202      6200      6203      6204      6196      6208      6205      6204      6206
      6205      6204      6207      6206      6204      6207      6209      6208      6210
      6209      6208      6211      6210      6208      6211      6212      6218      6215
      6213      6212      6214      6213      6212      6218      6214      6212      6218
      6215      6219      6220      6216      6215      6217      6216      6215      6218
      6216      6215      6219      6217      6215      6218      6217      6215      6219
      6218      6215      6219      6219      6220      6221      6219      6220      6222
      6219      6220      6223      6220      6223      6224      6220      6223      6225
      6220      6223      6231      6221      6220      6222      6221      6220      6223
      6222      6220      6223      6223      6225      6226      6223      6231      6232
      6223      6231      6233      6223      6231      6234      6224      6223      6225
      6224      6223      6231      6225      6223      6231      6225      6226      6227
      6225      6226      6228      6226      6228      6229      6226      6228      6230
      6226      6228      6240      6227      6226      6228      6228      6240      6241
      6228      6240      6242      6228      6240      6243      6229      6228      6230
      6229      6228      6240      6230      6228      6240      6231      6234      6235
      6232      6231      6233      6232      6231      6234      6233      6231      6234
      6234      6235      6236      6234      6235      6237      6235      6237      6238
      6235      6237      6239      6235      6237      6287      6236      6235      6237
      6237      6287      6288      6237      6287      6289      6237      6287      6290
      6238      6237      6239      6238      6237      6287      6239      6237      6287
      6240      6243      6244      6240      6243      6245      6240      6243      6246
      6241      6240      6242      6241      6240      6243      6242      6240      6243
      6243      6246      6247      6243      6246      6248      6244      6243      6245
      6244      6243      6246      6245      6243      6246      6246      6248      6249
      6246      6248      6250      6247      6246      6248      6248      6250      6251
      6248      6250      6252      6248      6250      6253      6249      6248      6250
      6250      6253      6254      6250      6253      6255      6251      6250      6252
      6251      6250      6253      6252      6250      6253      6253      6255      6256
      6253      6255      6257      6254      6253      6255      6255      6257      6258
      6255      6257      6259      6255      6257      6260      6256      6255      6257
      6257      6260      6261      6257      6260      6262      6258      6257      6259
      6258      6257      6260      6259      6257      6260      6260      6262      6263
      6260      6262      6264      6261      6260      6262      6262      6264      6265
      6262      6264      6266      6262      6264      6267      6263      6262      6264
      6264      6267      6268      6264      6267      6269      6265      6264      6266
      6265      6264      6267      6266      6264      6267      6267      6269      6270
      6267      6269      6271      6268      6267      6269      6269      6271      6272
      6269      6271      6273      6269      6271      6274      6270      6269      6271
      6271      6274      6275      6271      6274      6276      6271      6274      6277
      6272      6271      6273      6272      6271      6274      6273      6271      6274
      6274      6277      6278      6274      6277      6279      6274      6277      6280
      6275      6274      6276      6275      6274      6277      6276      6274      6277
      6277      6280      6281      6277      6280      6282      6277      6280      6283
      6278      6277      6279      6278      6277      6280      6279      6277      6280
      6280      6283      6284      6280      6283      6285      6280      6283      6286
      6281      6280      6282      6281      6280      6283      6282      6280      6283
      6284      6283      6285      6284      6283      6286      6285      6283      6286
      6287      6290      6291      6287      6290      6292      6287      6290      6293
      6288      6287      6289      6288      6287      6290      6289      6287      6290
      6290      6293      6294      6290      6293      6295      6290      6293      6296
      6291      6290      6292      6291      6290      6293      6292      6290      6293
      6293      6296      6297      6293      6296      6298      6293      6296      6299
      6294      6293      6295      6294      6293      6296      6295      6293      6296
      6296      6299      6300      6296      6299      6301      6296      6299      6302
      6297      6296      6298      6297      6296      6299      6298      6296      6299
      6299      6302      6303      6299      6302      6304      6299      6302      6305
      6300      6299      6301      6300      6299      6302      6301      6299      6302
      6302      6305      6306      6302      6305      6307      6302      6305      6308
      6303      6302      6304      6303      6302      6305      6304      6302      6305
      6305      6308      6309      6305      6308      6310      6305      6308      6311
      6306      6305      6307      6306      6305      6308      6307      6305      6308
      6308      6311      6312      6308      6311      6313      6308      6311      6314
      6309      6308      6310      6309      6308      6311      6310      6308      6311
      6311      6314      6315      6311      6314      6316      6311      6314      6317
      6312      6311      6313      6312      6311      6314      6313      6311      6314
      6314      6317      6318      6314      6317      6319      6314      6317      6320
      6315      6314      6316      6315      6314      6317      6316      6314      6317
      6317      6320      6321      6317      6320      6322      6317      6320      6323
      6318      6317      6319      6318      6317      6320      6319      6317      6320
      6320      6323      6324      6320      6323      6325      6320      6323      6326
      6321      6320      6322      6321      6320      6323      6322      6320      6323
      6323      6326      6327      6323      6326      6328      6323      6326      6329
      6324      6323      6325      6324      6323      6326      6325      6323      6326
      6326      6329      6330      6326      6329      6331      6326      6329      6332
      6327      6326      6328      6327      6326      6329      6328      6326      6329
      6329      6332      6333      6329      6332      6334      6329      6332      6335
      6330      6329      6331      6330      6329      6332      6331      6329      6332
      6333      6332      6334      6333      6332      6335      6334      6332      6335
      6336      6337      6338      6336      6337      6339      6336      6337      6340
      6336      6341      6342      6336      6341      6343      6336      6341      6344
      6336      6345      6346      6336      6345      6347      6336      6345      6348
      6336      6349      6350      6336      6349      6351      6336      6349      6352
      6337      6336      6341      6337      6336      6345      6337      6336      6349
      6338      6337      6339      6338      6337      6340      6339      6337      6340
      6341      6336      6345      6341      6336      6349      6342      6341      6343
      6342      6341      6344      6343      6341      6344      6345      6336      6349
      6346      6345      6347      6346      6345      6348      6347      6345      6348
      6349      6352      6353      6349      6352      6354      6349      6352      6359
      6350      6349      6351      6350      6349      6352      6351      6349      6352
      6352      6359      6355      6353      6352      6354      6353      6352      6359
      6354      6352      6359      6355      6358      6360      6356      6355      6357
      6356      6355      6358      6356      6355      6359      6357      6355      6358
      6357      6355      6359      6358      6355      6359      6358      6360      6361
      6358      6360      6362      6358      6360      6365      6360      6365      6363
      6360      6365      6366      6360      6365      6367      6361      6360      6362
      6361      6360      6365      6362      6360      6365      6363      6365      6366
      6363      6365      6367      6363      6415      6416      6363      6415      6417
      6364      6363      6365      6364      6363      6415      6365      6363      6415
      6365      6367      6368      6365      6367      6369      6365      6367      6371
      6366      6365      6367      6367      6369      6370      6367      6371      6372
      6367      6371      6373      6368      6367      6369      6368      6367      6371
      6369      6367      6371      6371      6373      6374      6371      6373      6375
      6372      6371      6373      6373      6375      6376      6373      6375      6377
      6373      6375      6378      6374      6373      6375      6375      6378      6379
      6375      6378      6380      6375      6378      6381      6376      6375      6377
      6376      6375      6378      6377      6375      6378      6378      6381      6382
      6378      6381      6383      6378      6381      6384      6379      6378      6380
      6379      6378      6381      6380      6378      6381      6381      6384      6385
      6381      6384      6386      6381      6384      6387      6382      6381      6383
      6382      6381      6384      6383      6381      6384      6384      6387      6388
      6384      6387      6389      6384      6387      6390      6385      6384      6386
      6385      6384      6387      6386      6384      6387      6387      6390      6391
      6387      6390      6392      6387      6390      6393      6388      6387      6389
      6388      6387      6390      6389      6387      6390      6390      6393      6394
      6390      6393      6395      6390      6393      6396      6391      6390      6392
      6391      6390      6393      6392      6390      6393      6393      6396      6397
      6393      6396      6398      6393      6396      6399      6394      6393      6395
      6394      6393      6396      6395      6393      6396      6396      6399      6400
      6396      6399      6401      6396      6399      6402      6397      6396      6398
      6397      6396      6399      6398      6396      6399      6399      6402      6403
      6399      6402      6404      6399      6402      6405      6400      6399      6401
      6400      6399      6402      6401      6399      6402      6402      6405      6406
      6402      6405      6407      6402      6405      6408      6403      6402      6404
      6403      6402      6405      6404      6402      6405      6405      6408      6409
      6405      6408      6410      6405      6408      6411      6406      6405      6407
      6406      6405      6408      6407      6405      6408      6408      6411      6412
      6408      6411      6413      6408      6411      6414      6409      6408      6410
      6409      6408      6411      6410      6408      6411      6412      6411      6413
      6412      6411      6414      6413      6411      6414      6415      6417      6418
      6415      6417      6419      6415      6417      6420      6416      6415      6417
      6417      6420      6421      6417      6420      6422      6417      6420      6423
      6418      6417      6419      6418      6417      6420      6419      6417      6420
      6420      6423      6424      6420      6423      6425      6420      6423      6426
      6421      6420      6422      6421      6420      6423      6422      6420      6423
      6423      6426      6427      6423      6426      6428      6423      6426      6429
      6424      6423      6425      6424      6423      6426      6425      6423      6426
      6426      6429      6430      6426      6429      6431      6426      6429      6432
      6427      6426      6428      6427      6426      6429      6428      6426      6429
      6429      6432      6433      6429      6432      6434      6429      6432      6435
      6430      6429      6431      6430      6429      6432      6431      6429      6432
      6432      6435      6436      6432      6435      6437      6432      6435      6438
      6433      6432      6434      6433      6432      6435      6434      6432      6435
      6435      6438      6439      6435      6438      6440      6436      6435      6437
      6436      6435      6438      6437      6435      6438      6438      6440      6441
      6438      6440      6442      6439      6438      6440      6440      6442      6443
      6440      6442      6444      6440      6442      6445      6441      6440      6442
      6442      6445      6446      6442      6445      6447      6442      6445      6448
      6443      6442      6444      6443      6442      6445      6444      6442      6445
      6445      6448      6449      6445      6448      6450      6445      6448      6451
      6446      6445      6447      6446      6445      6448      6447      6445      6448
      6448      6451      6452      6448      6451      6453      6448      6451      6454
      6449      6448      6450      6449      6448      6451      6450      6448      6451
      6451      6454      6455      6451      6454      6456      6451      6454      6457
      6452      6451      6453      6452      6451      6454      6453      6451      6454
      6454      6457      6458      6454      6457      6459      6454      6457      6460
      6455      6454      6456      6455      6454      6457      6456      6454      6457
      6457      6460      6461      6457      6460      6462      6457      6460      6463
      6458      6457      6459      6458      6457      6460      6459      6457      6460
      6460      6463      6464      6460      6463      6465      6460      6463      6466
      6461      6460      6462      6461      6460      6463      6462      6460      6463
      6464      6463      6465      6464      6463      6466      6465      6463      6466
      6467      6468      6469      6467      6468      6470      6467      6468      6471
      6467      6472      6473      6467      6472      6474      6467      6472      6475
      6467      6476      6477      6467      6476      6478      6467      6476      6479
      6467      6480      6481      6467      6480      6482      6467      6480      6483
      6468      6467      6472      6468      6467      6476      6468      6467      6480
      6469      6468      6470      6469      6468      6471      6470      6468      6471
      6472      6467      6476      6472      6467      6480      6473      6472      6474
      6473      6472      6475      6474      6472      6475      6476      6467      6480
      6477      6476      6478      6477      6476      6479      6478      6476      6479
      6480      6483      6484      6480      6483      6485      6480      6483      6489
      6481      6480      6482      6481      6480      6483      6482      6480      6483
      6483      6489      6486      6484      6483      6485      6484      6483      6489
      6485      6483      6489      6486      6490      6491      6487      6486      6488
      6487      6486      6489      6487      6486      6490      6488      6486      6489
      6488      6486      6490      6489      6486      6490      6490      6491      6492
      6490      6491      6493      6490      6491      6494      6491      6494      6495
      6491      6494      6496      6491      6494      6502      6492      6491      6493
      6492      6491      6494      6493      6491      6494      6494      6496      6497
      6494      6502      6503      6494      6502      6504      6494      6502      6505
      6495      6494      6496      6495      6494      6502      6496      6494      6502
      6496      6497      6498      6496      6497      6499      6497      6499      6500
      6497      6499      6501      6497      6499      6511      6498      6497      6499
      6499      6511      6512      6499      6511      6513      6499      6511      6514
      6500      6499      6501      6500      6499      6511      6501      6499      6511
      6502      6505      6506      6503      6502      6504      6503      6502      6505
      6504      6502      6505      6505      6506      6507      6505      6506      6508
      6506      6508      6509      6506      6508      6510      6506      6508      6556
      6507      6506      6508      6508      6556      6557      6508      6556      6558
      6508      6556      6559      6509      6508      6510      6509      6508      6556
      6510      6508      6556      6511      6514      6515      6511      6514      6516
      6511      6514      6517      6512      6511      6513      6512      6511      6514
      6513      6511      6514      6514      6517      6518      6514      6517      6519
      6514      6517      6520      6515      6514      6516      6515      6514      6517
      6516      6514      6517      6517      6520      6521      6517      6520      6522
      6517      6520      6523      6518      6517      6519      6518      6517      6520
      6519      6517      6520      6520      6523      6524      6520      6523      6525
      6520      6523      6526      6521      6520      6522      6521      6520      6523
      6522      6520      6523      6523      6526      6527      6523      6526      6528
      6523      6526      6529      6524      6523      6525      6524      6523      6526
      6525      6523      6526      6526      6529      6530      6526      6529      6531
      6527      6526      6528      6527      6526      6529      6528      6526      6529
      6529      6531      6532      6529      6531      6533      6530      6529      6531
      6531      6533      6534      6531      6533      6535      6531      6533      6536
      6532      6531      6533      6533      6536      6537      6533      6536      6538
      6534      6533      6535      6534      6533      6536      6535      6533      6536
      6536      6538      6539      6536      6538      6540      6537      6536      6538
      6538      6540      6541      6538      6540      6542      6538      6540      6543
      6539      6538      6540      6540      6543      6544      6540      6543      6545
      6540      6543      6546      6541      6540      6542      6541      6540      6543
      6542      6540      6543      6543      6546      6547      6543      6546      6548
      6543      6546      6549      6544      6543      6545      6544      6543      6546
      6545      6543      6546      6546      6549      6550      6546      6549      6551
      6546      6549      6552      6547      6546      6548      6547      6546      6549
      6548      6546      6549      6549      6552      6553      6549      6552      6554
      6549      6552      6555      6550      6549      6551      6550      6549      6552
      6551      6549      6552      6553      6552      6554      6553      6552      6555
      6554      6552      6555      6556      6559      6560      6556      6559      6561
      6556      6559      6562      6557      6556      6558      6557      6556      6559
      6558      6556      6559      6559      6562      6563      6559      6562      6564
      6559      6562      6565      6560      6559      6561      6560      6559      6562
      6561      6559      6562      6562      6565      6566      6562      6565      6567
      6562      6565      6568      6563      6562      6564      6563      6562      6565
      6564      6562      6565      6565      6568      6569      6565      6568      6570
      6565      6568      6571      6566      6565      6567      6566      6565      6568
      6567      6565      6568      6568      6571      6572      6568      6571      6573
      6568      6571      6574      6569      6568      6570      6569      6568      6571
      6570      6568      6571      6571      6574      6575      6571      6574      6576
      6571      6574      6577      6572      6571      6573      6572      6571      6574
      6573      6571      6574      6574      6577      6578      6574      6577      6579
      6574      6577      6580      6575      6574      6576      6575      6574      6577
      6576      6574      6577      6577      6580      6581      6577      6580      6582
      6577      6580      6583      6578      6577      6579      6578      6577      6580
      6579      6577      6580      6580      6583      6584      6580      6583      6585
      6580      6583      6586      6581      6580      6582      6581      6580      6583
      6582      6580      6583      6583      6586      6587      6583      6586      6588
      6583      6586      6589      6584      6583      6585      6584      6583      6586
      6585      6583      6586      6586      6589      6590      6586      6589      6591
      6586      6589      6592      6587      6586      6588      6587      6586      6589
      6588      6586      6589      6589      6592      6593      6589      6592      6594
      6589      6592      6595      6590      6589      6591      6590      6589      6592
      6591      6589      6592      6592      6595      6596      6592      6595      6597
      6592      6595      6598      6593      6592      6594      6593      6592      6595
      6594      6592      6595      6595      6598      6599      6595      6598      6600
      6595      6598      6601      6596      6595      6597      6596      6595      6598
      6597      6595      6598      6598      6601      6602      6598      6601      6603
      6598      6601      6604      6599      6598      6600      6599      6598      6601
      6600      6598      6601      6602      6601      6603      6602      6601      6604
      6603      6601      6604      6605      6609      6610      6605      6609      6611
      6605      6609      6612      6606      6605      6607      6606      6605      6608
      6606      6605      6609      6607      6605      6608      6607      6605      6609
      6608      6605      6609      6609      6612      6613      6609      6612      6614
      6609      6612      6618      6610      6609      6611      6610      6609      6612
      6611      6609      6612      6612      6618      6615      6613      6612      6614
      6613      6612      6618      6614      6612      6618      6615      6619      6620
      6616      6615      6617      6616      6615      6618      6616      6615      6619
      6617      6615      6618      6617      6615      6619      6618      6615      6619
      6619      6620      6621      6619      6620      6622      6619      6620      6623
      6620      6623      6624      6620      6623      6625      6620      6623      6631
      6621      6620      6622      6621      6620      6623      6622      6620      6623
      6623      6625      6626      6623      6631      6632      6623      6631      6633
      6623      6631      6634      6624      6623      6625      6624      6623      6631
      6625      6623      6631      6625      6626      6627      6625      6626      6628
      6626      6628      6629      6626      6628      6630      6626      6628      6640
      6627      6626      6628      6628      6640      6641      6628      6640      6642
      6628      6640      6643      6629      6628      6630      6629      6628      6640
      6630      6628      6640      6631      6634      6635      6632      6631      6633
      6632      6631      6634      6633      6631      6634      6634      6635      6636
      6634      6635      6637      6635      6637      6638      6635      6637      6639
      6635      6637      6687      6636      6635      6637      6637      6687      6688
      6637      6687      6689      6637      6687      6690      6638      6637      6639
      6638      6637      6687      6639      6637      6687      6640      6643      6644
      6640      6643      6645      6640      6643      6646      6641      6640      6642
      6641      6640      6643      6642      6640      6643      6643      6646      6647
      6643      6646      6648      6644      6643      6645      6644      6643      6646
      6645      6643      6646      6646      6648      6649      6646      6648      6650
      6647      6646      6648      6648      6650      6651      6648      6650      6652
      6648      6650      6653      6649      6648      6650      6650      6653      6654
      6650      6653      6655      6651      6650      6652      6651      6650      6653
      6652      6650      6653      6653      6655      6656      6653      6655      6657
      6654      6653      6655      6655      6657      6658      6655      6657      6659
      6655      6657      6660      6656      6655      6657      6657      6660      6661
      6657      6660      6662      6658      6657      6659      6658      6657      6660
      6659      6657      6660      6660      6662      6663      6660      6662      6664
      6661      6660      6662      6662      6664      6665      6662      6664      6666
      6662      6664      6667      6663      6662      6664      6664      6667      6668
      6664      6667      6669      6665      6664      6666      6665      6664      6667
      6666      6664      6667      6667      6669      6670      6667      6669      6671
      6668      6667      6669      6669      6671      6672      6669      6671      6673
      6669      6671      6674      6670      6669      6671      6671      6674      6675
      6671      6674      6676      6671      6674      6677      6672      6671      6673
      6672      6671      6674      6673      6671      6674      6674      6677      6678
      6674      6677      6679      6674      6677      6680      6675      6674      6676
      6675      6674      6677      6676      6674      6677      6677      6680      6681
      6677      6680      6682      6677      6680      6683      6678      6677      6679
      6678      6677      6680      6679      6677      6680      6680      6683      6684
      6680      6683      6685      6680      6683      6686      6681      6680      6682
      6681      6680      6683      6682      6680      6683      6684      6683      6685
      6684      6683      6686      6685      6683      6686      6687      6690      6691
      6687      6690      6692      6687      6690      6693      6688      6687      6689
      6688      6687      6690      6689      6687      6690      6690      6693      6694
      6690      6693      6695      6690      6693      6696      6691      6690      6692
      6691      6690      6693      6692      6690      6693      6693      6696      6697
      6693      6696      6698      6693      6696      6699      6694      6693      6695
      6694      6693      6696      6695      6693      6696      6696      6699      6700
      6696      6699      6701      6696      6699      6702      6697      6696      6698
      6697      6696      6699      6698      6696      6699      6699      6702      6703
      6699      6702      6704      6699      6702      6705      6700      6699      6701
      6700      6699      6702      6701      6699      6702      6702      6705      6706
      6702      6705      6707      6702      6705      6708      6703      6702      6704
      6703      6702      6705      6704      6702      6705      6705      6708      6709
      6705      6708      6710      6705      6708      6711      6706      6705      6707
      6706      6705      6708      6707      6705      6708      6708      6711      6712
      6708      6711      6713      6708      6711      6714      6709      6708      6710
      6709      6708      6711      6710      6708      6711      6711      6714      6715
      6711      6714      6716      6711      6714      6717      6712      6711      6713
      6712      6711      6714      6713      6711      6714      6714      6717      6718
      6714      6717      6719      6714      6717      6720      6715      6714      6716
      6715      6714      6717      6716      6714      6717      6717      6720      6721
      6717      6720      6722      6717      6720      6723      6718      6717      6719
      6718      6717      6720      6719      6717      6720      6720      6723      6724
      6720      6723      6725      6720      6723      6726      6721      6720      6722
      6721      6720      6723      6722      6720      6723      6723      6726      6727
      6723      6726      6728      6723      6726      6729      6724      6723      6725
      6724      6723      6726      6725      6723      6726      6726      6729      6730
      6726      6729      6731      6726      6729      6732      6727      6726      6728
      6727      6726      6729      6728      6726      6729      6729      6732      6733
      6729      6732      6734      6729      6732      6735      6730      6729      6731
      6730      6729      6732      6731      6729      6732      6733      6732      6734
      6733      6732      6735      6734      6732      6735      6736      6740      6741
      6736      6740      6742      6736      6740      6743      6737      6736      6738
      6737      6736      6739      6737      6736      6740      6738      6736      6739
      6738      6736      6740      6739      6736      6740      6740      6743      6744
      6740      6743      6745      6740      6743      6749      6741      6740      6742
      6741      6740      6743      6742      6740      6743      6743      6749      6746
      6744      6743      6745      6744      6743      6749      6745      6743      6749
      6746      6750      6751      6747      6746      6748      6747      6746      6749
      6747      6746      6750      6748      6746      6749      6748      6746      6750
      6749      6746      6750      6750      6751      6752      6750      6751      6753
      6750      6751      6754      6751      6754      6755      6751      6754      6756
      6751      6754      6762      6752      6751      6753      6752      6751      6754
      6753      6751      6754      6754      6756      6757      6754      6762      6763
      6754      6762      6764      6754      6762      6765      6755      6754      6756
      6755      6754      6762      6756      6754      6762      6756      6757      6758
      6756      6757      6759      6757      6759      6760      6757      6759      6761
      6757      6759      6771      6758      6757      6759      6759      6771      6772
      6759      6771      6773      6759      6771      6774      6760      6759      6761
      6760      6759      6771      6761      6759      6771      6762      6765      6766
      6763      6762      6764      6763      6762      6765      6764      6762      6765
      6765      6766      6767      6765      6766      6768      6766      6768      6769
      6766      6768      6770      6766      6768      6818      6767      6766      6768
      6768      6818      6819      6768      6818      6820      6768      6818      6821
      6769      6768      6770      6769      6768      6818      6770      6768      6818
      6771      6774      6775      6771      6774      6776      6771      6774      6777
      6772      6771      6773      6772      6771      6774      6773      6771      6774
      6774      6777      6778      6774      6777      6779      6775      6774      6776
      6775      6774      6777      6776      6774      6777      6777      6779      6780
      6777      6779      6781      6778      6777      6779      6779      6781      6782
      6779      6781      6783      6779      6781      6784      6780      6779      6781
      6781      6784      6785      6781      6784      6786      6782      6781      6783
      6782      6781      6784      6783      6781      6784      6784      6786      6787
      6784      6786      6788      6785      6784      6786      6786      6788      6789
      6786      6788      6790      6786      6788      6791      6787      6786      6788
      6788      6791      6792      6788      6791      6793      6789      6788      6790
      6789      6788      6791      6790      6788      6791      6791      6793      6794
      6791      6793      6795      6792      6791      6793      6793      6795      6796
      6793      6795      6797      6793      6795      6798      6794      6793      6795
      6795      6798      6799      6795      6798      6800      6796      6795      6797
      6796      6795      6798      6797      6795      6798      6798      6800      6801
      6798      6800      6802      6799      6798      6800      6800      6802      6803
      6800      6802      6804      6800      6802      6805      6801      6800      6802
      6802      6805      6806      6802      6805      6807      6802      6805      6808
      6803      6802      6804      6803      6802      6805      6804      6802      6805
      6805      6808      6809      6805      6808      6810      6805      6808      6811
      6806      6805      6807      6806      6805      6808      6807      6805      6808
      6808      6811      6812      6808      6811      6813      6808      6811      6814
      6809      6808      6810      6809      6808      6811      6810      6808      6811
      6811      6814      6815      6811      6814      6816      6811      6814      6817
      6812      6811      6813      6812      6811      6814      6813      6811      6814
      6815      6814      6816      6815      6814      6817      6816      6814      6817
      6818      6821      6822      6818      6821      6823      6818      6821      6824
      6819      6818      6820      6819      6818      6821      6820      6818      6821
      6821      6824      6825      6821      6824      6826      6821      6824      6827
      6822      6821      6823      6822      6821      6824      6823      6821      6824
      6824      6827      6828      6824      6827      6829      6824      6827      6830
      6825      6824      6826      6825      6824      6827      6826      6824      6827
      6827      6830      6831      6827      6830      6832      6827      6830      6833
      6828      6827      6829      6828      6827      6830      6829      6827      6830
      6830      6833      6834      6830      6833      6835      6830      6833      6836
      6831      6830      6832      6831      6830      6833      6832      6830      6833
      6833      6836      6837      6833      6836      6838      6833      6836      6839
      6834      6833      6835      6834      6833      6836      6835      6833      6836
      6836      6839      6840      6836      6839      6841      6836      6839      6842
      6837      6836      6838      6837      6836      6839      6838      6836      6839
      6839      6842      6843      6839      6842      6844      6839      6842      6845
      6840      6839      6841      6840      6839      6842      6841      6839      6842
      6842      6845      6846      6842      6845      6847      6842      6845      6848
      6843      6842      6844      6843      6842      6845      6844      6842      6845
      6845      6848      6849      6845      6848      6850      6845      6848      6851
      6846      6845      6847      6846      6845      6848      6847      6845      6848
      6848      6851      6852      6848      6851      6853      6848      6851      6854
      6849      6848      6850      6849      6848      6851      6850      6848      6851
      6851      6854      6855      6851      6854      6856      6851      6854      6857
      6852      6851      6853      6852      6851      6854      6853      6851      6854
      6854      6857      6858      6854      6857      6859      6854      6857      6860
      6855      6854      6856      6855      6854      6857      6856      6854      6857
      6857      6860      6861      6857      6860      6862      6857      6860      6863
      6858      6857      6859      6858      6857      6860      6859      6857      6860
      6860      6863      6864      6860      6863      6865      6860      6863      6866
      6861      6860      6862      6861      6860      6863      6862      6860      6863
      6864      6863      6865      6864      6863      6866      6865      6863      6866
      6867      6871      6872      6867      6871      6873      6867      6871      6874
      6868      6867      6869      6868      6867      6870      6868      6867      6871
      6869      6867      6870      6869      6867      6871      6870      6867      6871
      6871      6874      6875      6871      6874      6876      6871      6874      6880
      6872      6871      6873      6872      6871      6874      6873      6871      6874
      6874      6880      6877      6875      6874      6876      6875      6874      6880
      6876      6874      6880      6877      6881      6882      6878      6877      6879
      6878      6877      6880      6878      6877      6881      6879      6877      6880
      6879      6877      6881      6880      6877      6881      6881      6882      6883
      6881      6882      6884      6881      6882      6885      6882      6885      6886
      6882      6885      6887      6882      6885      6893      6883      6882      6884
      6883      6882      6885      6884      6882      6885      6885      6887      6888
      6885      6893      6894      6885      6893      6895      6885      6893      6896
      6886      6885      6887      6886      6885      6893      6887      6885      6893
      6887      6888      6889      6887      6888      6890      6888      6890      6891
      6888      6890      6892      6888      6890      6902      6889      6888      6890
      6890      6902      6903      6890      6902      6904      6890      6902      6905
      6891      6890      6892      6891      6890      6902      6892      6890      6902
      6893      6896      6897      6894      6893      6895      6894      6893      6896
      6895      6893      6896      6896      6897      6898      6896      6897      6899
      6897      6899      6900      6897      6899      6901      6897      6899      6949
      6898      6897      6899      6899      6949      6950      6899      6949      6951
      6899      6949      6952      6900      6899      6901      6900      6899      6949
      6901      6899      6949      6902      6905      6906      6902      6905      6907
      6902      6905      6908      6903      6902      6904      6903      6902      6905
      6904      6902      6905      6905      6908      6909      6905      6908      6910
      6905      6908      6911      6906      6905      6907      6906      6905      6908
      6907      6905      6908      6908      6911      6912      6908      6911      6913
      6908      6911      6914      6909      6908      6910      6909      6908      6911
      6910      6908      6911      6911      6914      6915      6911      6914      6916
      6911      6914      6917      6912      6911      6913      6912      6911      6914
      6913      6911      6914      6914      6917      6918      6914      6917      6919
      6914      6917      6920      6915      6914      6916      6915      6914      6917
      6916      6914      6917      6917      6920      6921      6917      6920      6922
      6918      6917      6919      6918      6917      6920      6919      6917      6920
      6920      6922      6923      6920      6922      6924      6921      6920      6922
      6922      6924      6925      6922      6924      6926      6922      6924      6927
      6923      6922      6924      6924      6927      6928      6924      6927      6929
      6924      6927      6930      6925      6924      6926      6925      6924      6927
      6926      6924      6927      6927      6930      6931      6927      6930      6932
      6927      6930      6933      6928      6927      6929      6928      6927      6930
      6929      6927      6930      6930      6933      6934      6930      6933      6935
      6930      6933      6936      6931      6930      6932      6931      6930      6933
      6932      6930      6933      6933      6936      6937      6933      6936      6938
      6933      6936      6939      6934      6933      6935      6934      6933      6936
      6935      6933      6936      6936      6939      6940      6936      6939      6941
      6936      6939      6942      6937      6936      6938      6937      6936      6939
      6938      6936      6939      6939      6942      6943      6939      6942      6944
      6939      6942      6945      6940      6939      6941      6940      6939      6942
      6941      6939      6942      6942      6945      6946      6942      6945      6947
      6942      6945      6948      6943      6942      6944      6943      6942      6945
      6944      6942      6945      6946      6945      6947      6946      6945      6948
      6947      6945      6948      6949      6952      6953      6949      6952      6954
      6949      6952      6955      6950      6949      6951      6950      6949      6952
      6951      6949      6952      6952      6955      6956      6952      6955      6957
      6952      6955      6958      6953      6952      6954      6953      6952      6955
      6954      6952      6955      6955      6958      6959      6955      6958      6960
      6955      6958      6961      6956      6955      6957      6956      6955      6958
      6957      6955      6958      6958      6961      6962      6958      6961      6963
      6958      6961      6964      6959      6958      6960      6959      6958      6961
      6960      6958      6961      6961      6964      6965      6961      6964      6966
      6961      6964      6967      6962      6961      6963      6962      6961      6964
      6963      6961      6964      6964      6967      6968      6964      6967      6969
      6964      6967      6970      6965      6964      6966      6965      6964      6967
      6966      6964      6967      6967      6970      6971      6967      6970      6972
      6967      6970      6973      6968      6967      6969      6968      6967      6970
      6969      6967      6970      6970      6973      6974      6970      6973      6975
      6970      6973      6976      6971      6970      6972      6971      6970      6973
      6972      6970      6973      6973      6976      6977      6973      6976      6978
      6973      6976      6979      6974      6973      6975      6974      6973      6976
      6975      6973      6976      6976      6979      6980      6976      6979      6981
      6976      6979      6982      6977      6976      6978      6977      6976      6979
      6978      6976      6979      6979      6982      6983      6979      6982      6984
      6979      6982      6985      6980      6979      6981      6980      6979      6982
      6981      6979      6982      6982      6985      6986      6982      6985      6987
      6982      6985      6988      6983      6982      6984      6983      6982      6985
      6984      6982      6985      6985      6988      6989      6985      6988      6990
      6985      6988      6991      6986      6985      6987      6986      6985      6988
      6987      6985      6988      6988      6991      6992      6988      6991      6993
      6988      6991      6994      6989      6988      6990      6989      6988      6991
      6990      6988      6991      6991      6994      6995      6991      6994      6996
      6991      6994      6997      6992      6991      6993      6992      6991      6994
      6993      6991      6994      6995      6994      6996      6995      6994      6997
      6996      6994      6997      6998      7002      7003      6998      7002      7004
      6998      7002      7005      6999      6998      7000      6999      6998      7001
      6999      6998      7002      7000      6998      7001      7000      6998      7002
      7001      6998      7002      7002      7005      7006      7002      7005      7007
      7002      7005      7011      7003      7002      7004      7003      7002      7005
      7004      7002      7005      7005      7011      7008      7006      7005      7007
      7006      7005      7011      7007      7005      7011      7008      7012      7013
      7009      7008      7010      7009      7008      7011      7009      7008      7012
      7010      7008      7011      7010      7008      7012      7011      7008      7012
      7012      7013      7014      7012      7013      7015      7012      7013      7016
      7013      7016      7017      7013      7016      7018      7013      7016      7024
      7014      7013      7015      7014      7013      7016      7015      7013      7016
      7016      7018      7019      7016      7024      7025      7016      7024      7026
      7016      7024      7027      7017      7016      7018      7017      7016      7024
      7018      7016      7024      7018      7019      7020      7018      7019      7021
      7019      7021      7022      7019      7021      7023      7019      7021      7033
      7020      7019      7021      7021      7033      7034      7021      7033      7035
      7021      7033      7036      7022      7021      7023      7022      7021      7033
      7023      7021      7033      7024      7027      7028      7025      7024      7026
      7025      7024      7027      7026      7024      7027      7027      7028      7029
      7027      7028      7030      7028      7030      7031      7028      7030      7032
      7028      7030      7080      7029      7028      7030      7030      7080      7081
      7030      7080      7082      7030      7080      7083      7031      7030      7032
      7031      7030      7080      7032      7030      7080      7033      7036      7037
      7033      7036      7038      7033      7036      7039      7034      7033      7035
      7034      7033      7036      7035      7033      7036      7036      7039      7040
      7036      7039      7041      7037      7036      7038      7037      7036      7039
      7038      7036      7039      7039      7041      7042      7039      7041      7043
      7040      7039      7041      7041      7043      7044      7041      7043      7045
      7041      7043      7046      7042      7041      7043      7043      7046      7047
      7043      7046      7048      7044      7043      7045      7044      7043      7046
      7045      7043      7046      7046      7048      7049      7046      7048      7050
      7047      7046      7048      7048      7050      7051      7048      7050      7052
      7048      7050      7053      7049      7048      7050      7050      7053      7054
      7050      7053      7055      7051      7050      7052      7051      7050      7053
      7052      7050      7053      7053      7055      7056      7053      7055      7057
      7054      7053      7055      7055      7057      7058      7055      7057      7059
      7055      7057      7060      7056      7055      7057      7057      7060      7061
      7057      7060      7062      7058      7057      7059      7058      7057      7060
      7059      7057      7060      7060      7062      7063      7060      7062      7064
      7061      7060      7062      7062      7064      7065      7062      7064      7066
      7062      7064      7067      7063      7062      7064      7064      7067      7068
      7064      7067      7069      7064      7067      7070      7065      7064      7066
      7065      7064      7067      7066      7064      7067      7067      7070      7071
      7067      7070      7072      7067      7070      7073      7068      7067      7069
      7068      7067      7070      7069      7067      7070      7070      7073      7074
      7070      7073      7075      7070      7073      7076      7071      7070      7072
      7071      7070      7073      7072      7070      7073      7073      7076      7077
      7073      7076      7078      7073      7076      7079      7074      7073      7075
      7074      7073      7076      7075      7073      7076      7077      7076      7078
      7077      7076      7079      7078      7076      7079      7080      7083      7084
      7080      7083      7085      7080      7083      7086      7081      7080      7082
      7081      7080      7083      7082      7080      7083      7083      7086      7087
      7083      7086      7088      7083      7086      7089      7084      7083      7085
      7084      7083      7086      7085      7083      7086      7086      7089      7090
      7086      7089      7091      7086      7089      7092      7087      7086      7088
      7087      7086      7089      7088      7086      7089      7089      7092      7093
      7089      7092      7094      7089      7092      7095      7090      7089      7091
      7090      7089      7092      7091      7089      7092      7092      7095      7096
      7092      7095      7097      7092      7095      7098      7093      7092      7094
      7093      7092      7095      7094      7092      7095      7095      7098      7099
      7095      7098      7100      7095      7098      7101      7096      7095      7097
      7096      7095      7098      7097      7095      7098      7098      7101      7102
      7098      7101      7103      7098      7101      7104      7099      7098      7100
      7099      7098      7101      7100      7098      7101      7101      7104      7105
      7101      7104      7106      7101      7104      7107      7102      7101      7103
      7102      7101      7104      7103      7101      7104      7104      7107      7108
      7104      7107      7109      7104      7107      7110      7105      7104      7106
      7105      7104      7107      7106      7104      7107      7107      7110      7111
      7107      7110      7112      7107      7110      7113      7108      7107      7109
      7108      7107      7110      7109      7107      7110      7110      7113      7114
      7110      7113      7115      7110      7113      7116      7111      7110      7112
      7111      7110      7113      7112      7110      7113      7113      7116      7117
      7113      7116      7118      7113      7116      7119      7114      7113      7115
      7114      7113      7116      7115      7113      7116      7116      7119      7120
      7116      7119      7121      7116      7119      7122      7117      7116      7118
      7117      7116      7119      7118      7116      7119      7119      7122      7123
      7119      7122      7124      7119      7122      7125      7120      7119      7121
      7120      7119      7122      7121      7119      7122      7122      7125      7126
      7122      7125      7127      7122      7125      7128      7123      7122      7124
      7123      7122      7125      7124      7122      7125      7126      7125      7127
      7126      7125      7128      7127      7125      7128      7129      7130      7131
      7129      7130      7132      7129      7130      7145      7129      7133      7134
      7129      7133      7135      7129      7133      7136      7129      7137      7138
      7129      7137      7139      7129      7137      7140      7129      7141      7142
      7129      7141      7143      7129      7141      7144      7130      7129      7133
      7130      7129      7137      7130      7129      7141      7130      7145      7146
      7130      7145      7147      7130      7145      7151      7131      7130      7132
      7131      7130      7145      7132      7130      7145      7133      7129      7137
      7133      7129      7141      7134      7133      7135      7134      7133      7136
      7135      7133      7136      7137      7129      7141      7138      7137      7139
      7138      7137      7140      7139      7137      7140      7142      7141      7143
      7142      7141      7144      7143      7141      7144      7145      7151      7148
      7146      7145      7147      7146      7145      7151      7147      7145      7151
      7148      7152      7153      7149      7148      7150      7149      7148      7151
      7149      7148      7152      7150      7148      7151      7150      7148      7152
      7151      7148      7152      7152      7153      7154      7152      7153      7155
      7152      7153      7156      7153      7156      7157      7153      7156      7158
      7153      7156      7164      7154      7153      7155      7154      7153      7156
      7155      7153      7156      7156      7158      7159      7156      7164      7165
      7156      7164      7166      7156      7164      7167      7157      7156      7158
      7157      7156      7164      7158      7156      7164      7158      7159      7160
      7158      7159      7161      7159      7161      7162      7159      7161      7163
      7159      7161      7173      7160      7159      7161      7161      7173      7174
      7161      7173      7175      7161      7173      7176      7162      7161      7163
      7162      7161      7173      7163      7161      7173      7164      7167      7168
      7165      7164      7166      7165      7164      7167      7166      7164      7167
      7167      7168      7169      7167      7168      7170      7168      7170      7171
      7168      7170      7172      7168      7170      7220      7169      7168      7170
      7170      7220      7221      7170      7220      7222      7170      7220      7223
      7171      7170      7172      7171      7170      7220      7172      7170      7220
      7173      7176      7177      7173      7176      7178      7173      7176      7179
      7174      7173      7175      7174      7173      7176      7175      7173      7176
      7176      7179      7180      7176      7179      7181      7177      7176      7178
      7177      7176      7179      7178      7176      7179      7179      7181      7182
      7179      7181      7183      7180      7179      7181      7181      7183      7184
      7181      7183      7185      7181      7183      7186      7182      7181      7183
      7183      7186      7187      7183      7186      7188      7184      7183      7185
      7184      7183      7186      7185      7183      7186      7186      7188      7189
      7186      7188      7190      7187      7186      7188      7188      7190      7191
      7188      7190      7192      7188      7190      7193      7189      7188      7190
      7190      7193      7194      7190      7193      7195      7191      7190      7192
      7191      7190      7193      7192      7190      7193      7193      7195      7196
      7193      7195      7197      7194      7193      7195      7195      7197      7198
      7195      7197      7199      7195      7197      7200      7196      7195      7197
      7197      7200      7201      7197      7200      7202      7198      7197      7199
      7198      7197      7200      7199      7197      7200      7200      7202      7203
      7200      7202      7204      7201      7200      7202      7202      7204      7205
      7202      7204      7206      7202      7204      7207      7203      7202      7204
      7204      7207      7208      7204      7207      7209      7204      7207      7210
      7205      7204      7206      7205      7204      7207      7206      7204      7207
      7207      7210      7211      7207      7210      7212      7207      7210      7213
      7208      7207      7209      7208      7207      7210      7209      7207      7210
      7210      7213      7214      7210      7213      7215      7210      7213      7216
      7211      7210      7212      7211      7210      7213      7212      7210      7213
      7213      7216      7217      7213      7216      7218      7213      7216      7219
      7214      7213      7215      7214      7213      7216      7215      7213      7216
      7217      7216      7218      7217      7216      7219      7218      7216      7219
      7220      7223      7224      7220      7223      7225      7220      7223      7226
      7221      7220      7222      7221      7220      7223      7222      7220      7223
      7223      7226      7227      7223      7226      7228      7223      7226      7229
      7224      7223      7225      7224      7223      7226      7225      7223      7226
      7226      7229      7230      7226      7229      7231      7226      7229      7232
      7227      7226      7228      7227      7226      7229      7228      7226      7229
      7229      7232      7233      7229      7232      7234      7229      7232      7235
      7230      7229      7231      7230      7229      7232      7231      7229      7232
      7232      7235      7236      7232      7235      7237      7232      7235      7238
      7233      7232      7234      7233      7232      7235      7234      7232      7235
      7235      7238      7239      7235      7238      7240      7235      7238      7241
      7236      7235      7237      7236      7235      7238      7237      7235      7238
      7238      7241      7242      7238      7241      7243      7238      7241      7244
      7239      7238      7240      7239      7238      7241      7240      7238      7241
      7241      7244      7245      7241      7244      7246      7241      7244      7247
      7242      7241      7243      7242      7241      7244      7243      7241      7244
      7244      7247      7248      7244      7247      7249      7244      7247      7250
      7245      7244      7246      7245      7244      7247      7246      7244      7247
      7247      7250      7251      7247      7250      7252      7247      7250      7253
      7248      7247      7249      7248      7247      7250      7249      7247      7250
      7250      7253      7254      7250      7253      7255      7250      7253      7256
      7251      7250      7252      7251      7250      7253      7252      7250      7253
      7253      7256      7257      7253      7256      7258      7253      7256      7259
      7254      7253      7255      7254      7253      7256      7255      7253      7256
      7256      7259      7260      7256      7259      7261      7256      7259      7262
      7257      7256      7258      7257      7256      7259      7258      7256      7259
      7259      7262      7263      7259      7262      7264      7259      7262      7265
      7260      7259      7261      7260      7259      7262      7261      7259      7262
      7262      7265      7266      7262      7265      7267      7262      7265      7268
      7263      7262      7264      7263      7262      7265      7264      7262      7265
      7266      7265      7267      7266      7265      7268      7267      7265      7268
      7269      7270      7271      7269      7270      7272      7269      7270      7273
      7269      7274      7275      7269      7274      7276      7269      7274      7277
      7269      7278      7279      7269      7278      7280      7269      7278      7281
      7269      7282      7283      7269      7282      7284      7269      7282      7285
      7270      7269      7274      7270      7269      7278      7270      7269      7282
      7271      7270      7272      7271      7270      7273      7272      7270      7273
      7274      7269      7278      7274      7269      7282      7275      7274      7276
      7275      7274      7277      7276      7274      7277      7278      7269      7282
      7279      7278      7280      7279      7278      7281      7280      7278      7281
      7282      7285      7286      7282      7285      7287      7282      7285      7292
      7283      7282      7284      7283      7282      7285      7284      7282      7285
      7285      7292      7288      7286      7285      7287      7286      7285      7292
      7287      7285      7292      7288      7291      7293      7289      7288      7290
      7289      7288      7291      7289      7288      7292      7290      7288      7291
      7290      7288      7292      7291      7288      7292      7291      7293      7294
      7291      7293      7295      7291      7293      7298      7293      7298      7296
      7293      7298      7299      7293      7298      7300      7294      7293      7295
      7294      7293      7298      7295      7293      7298      7296      7298      7299
      7296      7298      7300      7296      7348      7349      7296      7348      7350
      7297      7296      7298      7297      7296      7348      7298      7296      7348
      7298      7300      7301      7298      7300      7302      7298      7300      7304
      7299      7298      7300      7300      7302      7303      7300      7304      7305
      7300      7304      7306      7301      7300      7302      7301      7300      7304
      7302      7300      7304      7304      7306      7307      7304      7306      7308
      7305      7304      7306      7306      7308      7309      7306      7308      7310
      7306      7308      7311      7307      7306      7308      7308      7311      7312
      7308      7311      7313      7308      7311      7314      7309      7308      7310
      7309      7308      7311      7310      7308      7311      7311      7314      7315
      7311      7314      7316      7311      7314      7317      7312      7311      7313
      7312      7311      7314      7313      7311      7314      7314      7317      7318
      7314      7317      7319      7314      7317      7320      7315      7314      7316
      7315      7314      7317      7316      7314      7317      7317      7320      7321
      7317      7320      7322      7317      7320      7323      7318      7317      7319
      7318      7317      7320      7319      7317      7320      7320      7323      7324
      7320      7323      7325      7320      7323      7326      7321      7320      7322
      7321      7320      7323      7322      7320      7323      7323      7326      7327
      7323      7326      7328      7323      7326      7329      7324      7323      7325
      7324      7323      7326      7325      7323      7326      7326      7329      7330
      7326      7329      7331      7326      7329      7332      7327      7326      7328
      7327      7326      7329      7328      7326      7329      7329      7332      7333
      7329      7332      7334      7329      7332      7335      7330      7329      7331
      7330      7329      7332      7331      7329      7332      7332      7335      7336
      7332      7335      7337      7332      7335      7338      7333      7332      7334
      7333      7332      7335      7334      7332      7335      7335      7338      7339
      7335      7338      7340      7335      7338      7341      7336      7335      7337
      7336      7335      7338      7337      7335      7338      7338      7341      7342
      7338      7341      7343      7338      7341      7344      7339      7338      7340
      7339      7338      7341      7340      7338      7341      7341      7344      7345
      7341      7344      7346      7341      7344      7347      7342      7341      7343
      7342      7341      7344      7343      7341      7344      7345      7344      7346
      7345      7344      7347      7346      7344      7347      7348      7350      7351
      7348      7350      7352      7348      7350      7353      7349      7348      7350
      7350      7353      7354      7350      7353      7355      7350      7353      7356
      7351      7350      7352      7351      7350      7353      7352      7350      7353
      7353      7356      7357      7353      7356      7358      7353      7356      7359
      7354      7353      7355      7354      7353      7356      7355      7353      7356
      7356      7359      7360      7356      7359      7361      7356      7359      7362
      7357      7356      7358      7357      7356      7359      7358      7356      7359
      7359      7362      7363      7359      7362      7364      7359      7362      7365
      7360      7359      7361      7360      7359      7362      7361      7359      7362
      7362      7365      7366      7362      7365      7367      7362      7365      7368
      7363      7362      7364      7363      7362      7365      7364      7362      7365
      7365      7368      7369      7365      7368      7370      7365      7368      7371
      7366      7365      7367      7366      7365      7368      7367      7365      7368
      7368      7371      7372      7368      7371      7373      7369      7368      7370
      7369      7368      7371      7370      7368      7371      7371      7373      7374
      7371      7373      7375      7372      7371      7373      7373      7375      7376
      7373      7375      7377      7373      7375      7378      7374      7373      7375
      7375      7378      7379      7375      7378      7380      7375      7378      7381
      7376      7375      7377      7376      7375      7378      7377      7375      7378
      7378      7381      7382      7378      7381      7383      7378      7381      7384
      7379      7378      7380      7379      7378      7381      7380      7378      7381
      7381      7384      7385      7381      7384      7386      7381      7384      7387
      7382      7381      7383      7382      7381      7384      7383      7381      7384
      7384      7387      7388      7384      7387      7389      7384      7387      7390
      7385      7384      7386      7385      7384      7387      7386      7384      7387
      7387      7390      7391      7387      7390      7392      7387      7390      7393
      7388      7387      7389      7388      7387      7390      7389      7387      7390
      7390      7393      7394      7390      7393      7395      7390      7393      7396
      7391      7390      7392      7391      7390      7393      7392      7390      7393
      7393      7396      7397      7393      7396      7398      7393      7396      7399
      7394      7393      7395      7394      7393      7396      7395      7393      7396
      7397      7396      7398      7397      7396      7399      7398      7396      7399
      7400      7402      7403      7400      7404      7405      7400      7404      7406
      7400      7404      7407      7400      7446      7443      7400      7446      7447
      7400      7446      7448      7401      7400      7402      7401      7400      7404
      7401      7400      7446      7402      7400      7404      7402      7400      7446
      7404      7400      7446      7404      7407      7408      7404      7407      7438
      7405      7404      7406      7405      7404      7407      7406      7404      7407
      7407      7408      7409      7407      7408      7410      7407      7438      7436
      7407      7438      7439      7407      7438      7443      7408      7407      7438
      7408      7410      7411      7408      7410      7412      7408      7410      7413
      7409      7408      7410      7410      7413      7414      7410      7413      7415
      7410      7413      7436      7411      7410      7412      7411      7410      7413
      7412      7410      7413      7413      7415      7416      7413      7415      7417
      7413      7415      7425      7413      7436      7433      7413      7436      7437
      7413      7436      7438      7414      7413      7415      7414      7413      7436
      7415      7413      7436      7415      7417      7418      7415      7417      7419
      7415      7417      7420      7415      7425      7423      7415      7425      7426
      7415      7425      7430      7416      7415      7417      7416      7415      7425
      7417      7415      7425      7417      7420      7421      7417      7420      7422
      7417      7420      7423      7418      7417      7419      7418      7417      7420
      7419      7417      7420      7420      7423      7424      7420      7423      7425
      7420      7423      7449      7421      7420      7422      7421      7420      7423
      7422      7420      7423      7423      7425      7426      7423      7425      7430
      7423      7449      7450      7423      7449      7451      7423      7449      7455
      7424      7423      7425      7424      7423      7449      7425      7423      7449
      7425      7426      7427      7425      7426      7428      7425      7426      7429
      7425      7430      7431      7425      7430      7432      7425      7430      7433
      7426      7425      7430      7427      7426      7428      7427      7426      7429
      7428      7426      7429      7430      7433      7434      7430      7433      7435
      7430      7433      7436      7431      7430      7432      7431      7430      7433
      7432      7430      7433      7433      7436      7437      7433      7436      7438
      7434      7433      7435      7434      7433      7436      7435      7433      7436
      7436      7438      7439      7436      7438      7443      7437      7436      7438
      7438      7439      7440      7438      7439      7441      7438      7439      7442
      7438      7443      7444      7438      7443      7445      7438      7443      7446
      7439      7438      7443      7440      7439      7441      7440      7439      7442
      7441      7439      7442      7443      7446      7447      7443      7446      7448
      7444      7443      7445      7444      7443      7446      7445      7443      7446
      7447      7446      7448      7449      7451      7452      7449      7451      7453
      7449      7451      7454      7449      7455      7456      7449      7455      7457
      7449      7455      7458      7450      7449      7451      7450      7449      7455
      7451      7449      7455      7452      7451      7453      7452      7451      7454
      7453      7451      7454      7455      7458      7459      7455      7458      7460
      7455      7458      7461      7456      7455      7457      7456      7455      7458
      7457      7455      7458      7458      7461      7462      7458      7461      7463
      7458      7461      7464      7459      7458      7460      7459      7458      7461
      7460      7458      7461      7461      7464      7465      7461      7464      7466
      7461      7464      7470      7462      7461      7463      7462      7461      7464
      7463      7461      7464      7464      7466      7467      7464      7466      7468
      7464      7466      7469      7464      7470      7471      7464      7470      7472
      7464      7470      7473      7465      7464      7466      7465      7464      7470
      7466      7464      7470      7467      7466      7468      7467      7466      7469
      7468      7466      7469      7471      7470      7472      7471      7470      7473
      7472      7470      7473      7474      7476      7477      7474      7478      7479
      7474      7478      7480      7474      7478      7481      7474      7520      7517
      7474      7520      7521      7474      7520      7522      7475      7474      7476
      7475      7474      7478      7475      7474      7520      7476      7474      7478
      7476      7474      7520      7478      7474      7520      7478      7481      7482
      7478      7481      7512      7479      7478      7480      7479      7478      7481
      7480      7478      7481      7481      7482      7483      7481      7482      7484
      7481      7512      7510      7481      7512      7513      7481      7512      7517
      7482      7481      7512      7482      7484      7485      7482      7484      7486
      7482      7484      7487      7483      7482      7484      7484      7487      7488
      7484      7487      7489      7484      7487      7510      7485      7484      7486
      7485      7484      7487      7486      7484      7487      7487      7489      7490
      7487      7489      7491      7487      7489      7499      7487      7510      7507
      7487      7510      7511      7487      7510      7512      7488      7487      7489
      7488      7487      7510      7489      7487      7510      7489      7491      7492
      7489      7491      7493      7489      7491      7494      7489      7499      7497
      7489      7499      7500      7489      7499      7504      7490      7489      7491
      7490      7489      7499      7491      7489      7499      7491      7494      7495
      7491      7494      7496      7491      7494      7497      7492      7491      7493
      7492      7491      7494      7493      7491      7494      7494      7497      7498
      7494      7497      7499      7494      7497      7523      7495      7494      7496
      7495      7494      7497      7496      7494      7497      7497      7499      7500
      7497      7499      7504      7497      7523      7524      7497      7523      7525
      7497      7523      7529      7498      7497      7499      7498      7497      7523
      7499      7497      7523      7499      7500      7501      7499      7500      7502
      7499      7500      7503      7499      7504      7505      7499      7504      7506
      7499      7504      7507      7500      7499      7504      7501      7500      7502
      7501      7500      7503      7502      7500      7503      7504      7507      7508
      7504      7507      7509      7504      7507      7510      7505      7504      7506
      7505      7504      7507      7506      7504      7507      7507      7510      7511
      7507      7510      7512      7508      7507      7509      7508      7507      7510
      7509      7507      7510      7510      7512      7513      7510      7512      7517
      7511      7510      7512      7512      7513      7514      7512      7513      7515
      7512      7513      7516      7512      7517      7518      7512      7517      7519
      7512      7517      7520      7513      7512      7517      7514      7513      7515
      7514      7513      7516      7515      7513      7516      7517      7520      7521
      7517      7520      7522      7518      7517      7519      7518      7517      7520
      7519      7517      7520      7521      7520      7522      7523      7525      7526
      7523      7525      7527      7523      7525      7528      7523      7529      7530
      7523      7529      7531      7523      7529      7532      7524      7523      7525
      7524      7523      7529      7525      7523      7529      7526      7525      7527
      7526      7525      7528      7527      7525      7528      7529      7532      7533
      7529      7532      7534      7529      7532      7535      7530      7529      7531
      7530      7529      7532      7531      7529      7532      7532      7535      7536
      7532      7535      7537      7532      7535      7538      7533      7532      7534
      7533      7532      7535      7534      7532      7535      7535      7538      7539
      7535      7538      7540      7535      7538      7544      7536      7535      7537
      7536      7535      7538      7537      7535      7538      7538      7540      7541
      7538      7540      7542      7538      7540      7543      7538      7544      7545
      7538      7544      7546      7538      7544      7547      7539      7538      7540
      7539      7538      7544      7540      7538      7544      7541      7540      7542
      7541      7540      7543      7542      7540      7543      7545      7544      7546
      7545      7544      7547      7546      7544      7547      7548      7550      7551
      7548      7552      7553      7548      7552      7554      7548      7552      7555
      7548      7594      7591      7548      7594      7595      7548      7594      7596
      7549      7548      7550      7549      7548      7552      7549      7548      7594
      7550      7548      7552      7550      7548      7594      7552      7548      7594
      7552      7555      7556      7552      7555      7586      7553      7552      7554
      7553      7552      7555      7554      7552      7555      7555      7556      7557
      7555      7556      7558      7555      7586      7584      7555      7586      7587
      7555      7586      7591      7556      7555      7586      7556      7558      7559
      7556      7558      7560      7556      7558      7561      7557      7556      7558
      7558      7561      7562      7558      7561      7563      7558      7561      7584
      7559      7558      7560      7559      7558      7561      7560      7558      7561
      7561      7563      7564      7561      7563      7565      7561      7563      7573
      7561      7584      7581      7561      7584      7585      7561      7584      7586
      7562      7561      7563      7562      7561      7584      7563      7561      7584
      7563      7565      7566      7563      7565      7567      7563      7565      7568
      7563      7573      7571      7563      7573      7574      7563      7573      7578
      7564      7563      7565      7564      7563      7573      7565      7563      7573
      7565      7568      7569      7565      7568      7570      7565      7568      7571
      7566      7565      7567      7566      7565      7568      7567      7565      7568
      7568      7571      7572      7568      7571      7573      7568      7571      7597
      7569      7568      7570      7569      7568      7571      7570      7568      7571
      7571      7573      7574      7571      7573      7578      7571      7597      7598
      7571      7597      7599      7571      7597      7603      7572      7571      7573
      7572      7571      7597      7573      7571      7597      7573      7574      7575
      7573      7574      7576      7573      7574      7577      7573      7578      7579
      7573      7578      7580      7573      7578      7581      7574      7573      7578
      7575      7574      7576      7575      7574      7577      7576      7574      7577
      7578      7581      7582      7578      7581      7583      7578      7581      7584
      7579      7578      7580      7579      7578      7581      7580      7578      7581
      7581      7584      7585      7581      7584      7586      7582      7581      7583
      7582      7581      7584      7583      7581      7584      7584      7586      7587
      7584      7586      7591      7585      7584      7586      7586      7587      7588
      7586      7587      7589      7586      7587      7590      7586      7591      7592
      7586      7591      7593      7586      7591      7594      7587      7586      7591
      7588      7587      7589      7588      7587      7590      7589      7587      7590
      7591      7594      7595      7591      7594      7596      7592      7591      7593
      7592      7591      7594      7593      7591      7594      7595      7594      7596
      7597      7599      7600      7597      7599      7601      7597      7599      7602
      7597      7603      7604      7597      7603      7605      7597      7603      7606
      7598      7597      7599      7598      7597      7603      7599      7597      7603
      7600      7599      7601      7600      7599      7602      7601      7599      7602
      7603      7606      7607      7603      7606      7608      7603      7606      7609
      7604      7603      7605      7604      7603      7606      7605      7603      7606
      7606      7609      7610      7606      7609      7611      7606      7609      7612
      7607      7606      7608      7607      7606      7609      7608      7606      7609
      7609      7612      7613      7609      7612      7614      7609      7612      7618
      7610      7609      7611      7610      7609      7612      7611      7609      7612
      7612      7614      7615      7612      7614      7616      7612      7614      7617
      7612      7618      7619      7612      7618      7620      7612      7618      7621
      7613      7612      7614      7613      7612      7618      7614      7612      7618
      7615      7614      7616      7615      7614      7617      7616      7614      7617
      7619      7618      7620      7619      7618      7621      7620      7618      7621
      7622      7626      7627      7622      7626      7628      7622      7626      7629
      7623      7622      7624      7623      7622      7625      7623      7622      7626
      7624      7622      7625      7624      7622      7626      7625      7622      7626
      7626      7629      7630      7626      7629      7631      7626      7629      7635
      7627      7626      7628      7627      7626      7629      7628      7626      7629
      7629      7635      7632      7630      7629      7631      7630      7629      7635
      7631      7629      7635      7632      7636      7637      7633      7632      7634
      7633      7632      7635      7633      7632      7636      7634      7632      7635
      7634      7632      7636      7635      7632      7636      7636      7637      7638
      7636      7637      7639      7636      7637      7640      7637      7640      7641
      7637      7640      7642      7637      7640      7648      7638      7637      7639
      7638      7637      7640      7639      7637      7640      7640      7642      7643
      7640      7648      7649      7640      7648      7650      7640      7648      7651
      7641      7640      7642      7641      7640      7648      7642      7640      7648
      7642      7643      7644      7642      7643      7645      7643      7645      7646
      7643      7645      7647      7643      7645      7657      7644      7643      7645
      7645      7657      7658      7645      7657      7659      7645      7657      7660
      7646      7645      7647      7646      7645      7657      7647      7645      7657
      7648      7651      7652      7649      7648      7650      7649      7648      7651
      7650      7648      7651      7651      7652      7653      7651      7652      7654
      7652      7654      7655      7652      7654      7656      7652      7654      7704
      7653      7652      7654      7654      7704      7705      7654      7704      7706
      7654      7704      7707      7655      7654      7656      7655      7654      7704
      7656      7654      7704      7657      7660      7661      7657      7660      7662
      7657      7660      7663      7658      7657      7659      7658      7657      7660
      7659      7657      7660      7660      7663      7664      7660      7663      7665
      7661      7660      7662      7661      7660      7663      7662      7660      7663
      7663      7665      7666      7663      7665      7667      7664      7663      7665
      7665      7667      7668      7665      7667      7669      7665      7667      7670
      7666      7665      7667      7667      7670      7671      7667      7670      7672
      7668      7667      7669      7668      7667      7670      7669      7667      7670
      7670      7672      7673      7670      7672      7674      7671      7670      7672
      7672      7674      7675      7672      7674      7676      7672      7674      7677
      7673      7672      7674      7674      7677      7678      7674      7677      7679
      7675      7674      7676      7675      7674      7677      7676      7674      7677
      7677      7679      7680      7677      7679      7681      7678      7677      7679
      7679      7681      7682      7679      7681      7683      7679      7681      7684
      7680      7679      7681      7681      7684      7685      7681      7684      7686
      7682      7681      7683      7682      7681      7684      7683      7681      7684
      7684      7686      7687      7684      7686      7688      7685      7684      7686
      7686      7688      7689      7686      7688      7690      7686      7688      7691
      7687      7686      7688      7688      7691      7692      7688      7691      7693
      7688      7691      7694      7689      7688      7690      7689      7688      7691
      7690      7688      7691      7691      7694      7695      7691      7694      7696
      7691      7694      7697      7692      7691      7693      7692      7691      7694
      7693      7691      7694      7694      7697      7698      7694      7697      7699
      7694      7697      7700      7695      7694      7696      7695      7694      7697
      7696      7694      7697      7697      7700      7701      7697      7700      7702
      7697      7700      7703      7698      7697      7699      7698      7697      7700
      7699      7697      7700      7701      7700      7702      7701      7700      7703
      7702      7700      7703      7704      7707      7708      7704      7707      7709
      7704      7707      7710      7705      7704      7706      7705      7704      7707
      7706      7704      7707      7707      7710      7711      7707      7710      7712
      7707      7710      7713      7708      7707      7709      7708      7707      7710
      7709      7707      7710      7710      7713      7714      7710      7713      7715
      7710      7713      7716      7711      7710      7712      7711      7710      7713
      7712      7710      7713      7713      7716      7717      7713      7716      7718
      7713      7716      7719      7714      7713      7715      7714      7713      7716
      7715      7713      7716      7716      7719      7720      7716      7719      7721
      7716      7719      7722      7717      7716      7718      7717      7716      7719
      7718      7716      7719      7719      7722      7723      7719      7722      7724
      7719      7722      7725      7720      7719      7721      7720      7719      7722
      7721      7719      7722      7722      7725      7726      7722      7725      7727
      7722      7725      7728      7723      7722      7724      7723      7722      7725
      7724      7722      7725      7725      7728      7729      7725      7728      7730
      7725      7728      7731      7726      7725      7727      7726      7725      7728
      7727      7725      7728      7728      7731      7732      7728      7731      7733
      7728      7731      7734      7729      7728      7730      7729      7728      7731
      7730      7728      7731      7731      7734      7735      7731      7734      7736
      7731      7734      7737      7732      7731      7733      7732      7731      7734
      7733      7731      7734      7734      7737      7738      7734      7737      7739
      7734      7737      7740      7735      7734      7736      7735      7734      7737
      7736      7734      7737      7737      7740      7741      7737      7740      7742
      7737      7740      7743      7738      7737      7739      7738      7737      7740
      7739      7737      7740      7740      7743      7744      7740      7743      7745
      7740      7743      7746      7741      7740      7742      7741      7740      7743
      7742      7740      7743      7743      7746      7747      7743      7746      7748
      7743      7746      7749      7744      7743      7745      7744      7743      7746
      7745      7743      7746      7746      7749      7750      7746      7749      7751
      7746      7749      7752      7747      7746      7748      7747      7746      7749
      7748      7746      7749      7750      7749      7751      7750      7749      7752
      7751      7749      7752      7753      7757      7758      7753      7757      7759
      7753      7757      7760      7754      7753      7755      7754      7753      7756
      7754      7753      7757      7755      7753      7756      7755      7753      7757
      7756      7753      7757      7757      7760      7761      7757      7760      7762
      7757      7760      7766      7758      7757      7759      7758      7757      7760
      7759      7757      7760      7760      7766      7763      7761      7760      7762
      7761      7760      7766      7762      7760      7766      7763      7767      7768
      7764      7763      7765      7764      7763      7766      7764      7763      7767
      7765      7763      7766      7765      7763      7767      7766      7763      7767
      7767      7768      7769      7767      7768      7770      7767      7768      7771
      7768      7771      7772      7768      7771      7773      7768      7771      7779
      7769      7768      7770      7769      7768      7771      7770      7768      7771
      7771      7773      7774      7771      7779      7780      7771      7779      7781
      7771      7779      7782      7772      7771      7773      7772      7771      7779
      7773      7771      7779      7773      7774      7775      7773      7774      7776
      7774      7776      7777      7774      7776      7778      7774      7776      7788
      7775      7774      7776      7776      7788      7789      7776      7788      7790
      7776      7788      7791      7777      7776      7778      7777      7776      7788
      7778      7776      7788      7779      7782      7783      7780      7779      7781
      7780      7779      7782      7781      7779      7782      7782      7783      7784
      7782      7783      7785      7783      7785      7786      7783      7785      7787
      7783      7785      7835      7784      7783      7785      7785      7835      7836
      7785      7835      7837      7785      7835      7838      7786      7785      7787
      7786      7785      7835      7787      7785      7835      7788      7791      7792
      7788      7791      7793      7788      7791      7794      7789      7788      7790
      7789      7788      7791      7790      7788      7791      7791      7794      7795
      7791      7794      7796      7791      7794      7797      7792      7791      7793
      7792      7791      7794      7793      7791      7794      7794      7797      7798
      7794      7797      7799      7794      7797      7800      7795      7794      7796
      7795      7794      7797      7796      7794      7797      7797      7800      7801
      7797      7800      7802      7797      7800      7803      7798      7797      7799
      7798      7797      7800      7799      7797      7800      7800      7803      7804
      7800      7803      7805      7800      7803      7806      7801      7800      7802
      7801      7800      7803      7802      7800      7803      7803      7806      7807
      7803      7806      7808      7804      7803      7805      7804      7803      7806
      7805      7803      7806      7806      7808      7809      7806      7808      7810
      7807      7806      7808      7808      7810      7811      7808      7810      7812
      7808      7810      7813      7809      7808      7810      7810      7813      7814
      7810      7813      7815      7810      7813      7816      7811      7810      7812
      7811      7810      7813      7812      7810      7813      7813      7816      7817
      7813      7816      7818      7813      7816      7819      7814      7813      7815
      7814      7813      7816      7815      7813      7816      7816      7819      7820
      7816      7819      7821      7816      7819      7822      7817      7816      7818
      7817      7816      7819      7818      7816      7819      7819      7822      7823
      7819      7822      7824      7819      7822      7825      7820      7819      7821
      7820      7819      7822      7821      7819      7822      7822      7825      7826
      7822      7825      7827      7822      7825      7828      7823      7822      7824
      7823      7822      7825      7824      7822      7825      7825      7828      7829
      7825      7828      7830      7825      7828      7831      7826      7825      7827
      7826      7825      7828      7827      7825      7828      7828      7831      7832
      7828      7831      7833      7828      7831      7834      7829      7828      7830
      7829      7828      7831      7830      7828      7831      7832      7831      7833
      7832      7831      7834      7833      7831      7834      7835      7838      7839
      7835      7838      7840      7835      7838      7841      7836      7835      7837
      7836      7835      7838      7837      7835      7838      7838      7841      7842
      7838      7841      7843      7838      7841      7844      7839      7838      7840
      7839      7838      7841      7840      7838      7841      7841      7844      7845
      7841      7844      7846      7841      7844      7847      7842      7841      7843
      7842      7841      7844      7843      7841      7844      7844      7847      7848
      7844      7847      7849      7844      7847      7850      7845      7844      7846
      7845      7844      7847      7846      7844      7847      7847      7850      7851
      7847      7850      7852      7847      7850      7853      7848      7847      7849
      7848      7847      7850      7849      7847      7850      7850      7853      7854
      7850      7853      7855      7850      7853      7856      7851      7850      7852
      7851      7850      7853      7852      7850      7853      7853      7856      7857
      7853      7856      7858      7853      7856      7859      7854      7853      7855
      7854      7853      7856      7855      7853      7856      7856      7859      7860
      7856      7859      7861      7856      7859      7862      7857      7856      7858
      7857      7856      7859      7858      7856      7859      7859      7862      7863
      7859      7862      7864      7859      7862      7865      7860      7859      7861
      7860      7859      7862      7861      7859      7862      7862      7865      7866
      7862      7865      7867      7862      7865      7868      7863      7862      7864
      7863      7862      7865      7864      7862      7865      7865      7868      7869
      7865      7868      7870      7865      7868      7871      7866      7865      7867
      7866      7865      7868      7867      7865      7868      7868      7871      7872
      7868      7871      7873      7868      7871      7874      7869      7868      7870
      7869      7868      7871      7870      7868      7871      7871      7874      7875
      7871      7874      7876      7871      7874      7877      7872      7871      7873
      7872      7871      7874      7873      7871      7874      7874      7877      7878
      7874      7877      7879      7874      7877      7880      7875      7874      7876
      7875      7874      7877      7876      7874      7877      7877      7880      7881
      7877      7880      7882      7877      7880      7883      7878      7877      7879
      7878      7877      7880      7879      7877      7880      7881      7880      7882
      7881      7880      7883      7882      7880      7883      7884      7885      7886
      7884      7885      7887      7884      7885      7888      7884      7889      7890
      7884      7889      7891      7884      7889      7892      7884      7893      7894
      7884      7893      7895      7884      7893      7896      7884      7897      7898
      7884      7897      7899      7884      7897      7900      7885      7884      7889
      7885      7884      7893      7885      7884      7897      7886      7885      7887
      7886      7885      7888      7887      7885      7888      7889      7884      7893
      7889      7884      7897      7890      7889      7891      7890      7889      7892
      7891      7889      7892      7893      7884      7897      7894      7893      7895
      7894      7893      7896      7895      7893      7896      7897      7900      7901
      7897      7900      7902      7897      7900      7907      7898      7897      7899
      7898      7897      7900      7899      7897      7900      7900      7907      7903
      7901      7900      7902      7901      7900      7907      7902      7900      7907
      7903      7906      7908      7904      7903      7905      7904      7903      7906
      7904      7903      7907      7905      7903      7906      7905      7903      7907
      7906      7903      7907      7906      7908      7909      7906      7908      7910
      7906      7908      7913      7908      7913      7911      7908      7913      7914
      7908      7913      7915      7909      7908      7910      7909      7908      7913
      7910      7908      7913      7911      7913      7914      7911      7913      7915
      7911      7963      7964      7911      7963      7965      7912      7911      7913
      7912      7911      7963      7913      7911      7963      7913      7915      7916
      7913      7915      7917      7913      7915      7919      7914      7913      7915
      7915      7917      7918      7915      7919      7920      7915      7919      7921
      7916      7915      7917      7916      7915      7919      7917      7915      7919
      7919      7921      7922      7919      7921      7923      7920      7919      7921
      7921      7923      7924      7921      7923      7925      7921      7923      7926
      7922      7921      7923      7923      7926      7927      7923      7926      7928
      7923      7926      7929      7924      7923      7925      7924      7923      7926
      7925      7923      7926      7926      7929      7930      7926      7929      7931
      7926      7929      7932      7927      7926      7928      7927      7926      7929
      7928      7926      7929      7929      7932      7933      7929      7932      7934
      7929      7932      7935      7930      7929      7931      7930      7929      7932
      7931      7929      7932      7932      7935      7936      7932      7935      7937
      7932      7935      7938      7933      7932      7934      7933      7932      7935
      7934      7932      7935      7935      7938      7939      7935      7938      7940
      7935      7938      7941      7936      7935      7937      7936      7935      7938
      7937      7935      7938      7938      7941      7942      7938      7941      7943
      7938      7941      7944      7939      7938      7940      7939      7938      7941
      7940      7938      7941      7941      7944      7945      7941      7944      7946
      7941      7944      7947      7942      7941      7943      7942      7941      7944
      7943      7941      7944      7944      7947      7948      7944      7947      7949
      7944      7947      7950      7945      7944      7946      7945      7944      7947
      7946      7944      7947      7947      7950      7951      7947      7950      7952
      7947      7950      7953      7948      7947      7949      7948      7947      7950
      7949      7947      7950      7950      7953      7954      7950      7953      7955
      7950      7953      7956      7951      7950      7952      7951      7950      7953
      7952      7950      7953      7953      7956      7957      7953      7956      7958
      7953      7956      7959      7954      7953      7955      7954      7953      7956
      7955      7953      7956      7956      7959      7960      7956      7959      7961
      7956      7959      7962      7957      7956      7958      7957      7956      7959
      7958      7956      7959      7960      7959      7961      7960      7959      7962
      7961      7959      7962      7963      7965      7966      7963      7965      7967
      7963      7965      7968      7964      7963      7965      7965      7968      7969
      7965      7968      7970      7965      7968      7971      7966      7965      7967
      7966      7965      7968      7967      7965      7968      7968      7971      7972
      7968      7971      7973      7968      7971      7974      7969      7968      7970
      7969      7968      7971      7970      7968      7971      7971      7974      7975
      7971      7974      7976      7971      7974      7977      7972      7971      7973
      7972      7971      7974      7973      7971      7974      7974      7977      7978
      7974      7977      7979      7974      7977      7980      7975      7974      7976
      7975      7974      7977      7976      7974      7977      7977      7980      7981
      7977      7980      7982      7977      7980      7983      7978      7977      7979
      7978      7977      7980      7979      7977      7980      7980      7983      7984
      7980      7983      7985      7980      7983      7986      7981      7980      7982
      7981      7980      7983      7982      7980      7983      7983      7986      7987
      7983      7986      7988      7984      7983      7985      7984      7983      7986
      7985      7983      7986      7986      7988      7989      7986      7988      7990
      7987      7986      7988      7988      7990      7991      7988      7990      7992
      7988      7990      7993      7989      7988      7990      7990      7993      7994
      7990      7993      7995      7990      7993      7996      7991      7990      7992
      7991      7990      7993      7992      7990      7993      7993      7996      7997
      7993      7996      7998      7993      7996      7999      7994      7993      7995
      7994      7993      7996      7995      7993      7996      7996      7999      8000
      7996      7999      8001      7996      7999      8002      7997      7996      7998
      7997      7996      7999      7998      7996      7999      7999      8002      8003
      7999      8002      8004      7999      8002      8005      8000      7999      8001
      8000      7999      8002      8001      7999      8002      8002      8005      8006
      8002      8005      8007      8002      8005      8008      8003      8002      8004
      8003      8002      8005      8004      8002      8005      8005      8008      8009
      8005      8008      8010      8005      8008      8011      8006      8005      8007
      8006      8005      8008      8007      8005      8008      8008      8011      8012
      8008      8011      8013      8008      8011      8014      8009      8008      8010
      8009      8008      8011      8010      8008      8011      8012      8011      8013
      8012      8011      8014      8013      8011      8014      8015      8016      8017
      8015      8016      8018      8015      8016      8031      8015      8019      8020
      8015      8019      8021      8015      8019      8022      8015      8023      8024
      8015      8023      8025      8015      8023      8026      8015      8027      8028
      8015      8027      8029      8015      8027      8030      8016      8015      8019
      8016      8015      8023      8016      8015      8027      8016      8031      8032
      8016      8031      8033      8016      8031      8037      8017      8016      8018
      8017      8016      8031      8018      8016      8031      8019      8015      8023
      8019      8015      8027      8020      8019      8021      8020      8019      8022
      8021      8019      8022      8023      8015      8027      8024      8023      8025
      8024      8023      8026      8025      8023      8026      8028      8027      8029
      8028      8027      8030      8029      8027      8030      8031      8037      8034
      8032      8031      8033      8032      8031      8037      8033      8031      8037
      8034      8038      8039      8035      8034      8036      8035      8034      8037
      8035      8034      8038      8036      8034      8037      8036      8034      8038
      8037      8034      8038      8038      8039      8040      8038      8039      8041
      8038      8039      8042      8039      8042      8043      8039      8042      8044
      8039      8042      8050      8040      8039      8041      8040      8039      8042
      8041      8039      8042      8042      8044      8045      8042      8050      8051
      8042      8050      8052      8042      8050      8053      8043      8042      8044
      8043      8042      8050      8044      8042      8050      8044      8045      8046
      8044      8045      8047      8045      8047      8048      8045      8047      8049
      8045      8047      8059      8046      8045      8047      8047      8059      8060
      8047      8059      8061      8047      8059      8062      8048      8047      8049
      8048      8047      8059      8049      8047      8059      8050      8053      8054
      8051      8050      8052      8051      8050      8053      8052      8050      8053
      8053      8054      8055      8053      8054      8056      8054      8056      8057
      8054      8056      8058      8054      8056      8106      8055      8054      8056
      8056      8106      8107      8056      8106      8108      8056      8106      8109
      8057      8056      8058      8057      8056      8106      8058      8056      8106
      8059      8062      8063      8059      8062      8064      8059      8062      8065
      8060      8059      8061      8060      8059      8062      8061      8059      8062
      8062      8065      8066      8062      8065      8067      8063      8062      8064
      8063      8062      8065      8064      8062      8065      8065      8067      8068
      8065      8067      8069      8066      8065      8067      8067      8069      8070
      8067      8069      8071      8067      8069      8072      8068      8067      8069
      8069      8072      8073      8069      8072      8074      8070      8069      8071
      8070      8069      8072      8071      8069      8072      8072      8074      8075
      8072      8074      8076      8073      8072      8074      8074      8076      8077
      8074      8076      8078      8074      8076      8079      8075      8074      8076
      8076      8079      8080      8076      8079      8081      8077      8076      8078
      8077      8076      8079      8078      8076      8079      8079      8081      8082
      8079      8081      8083      8080      8079      8081      8081      8083      8084
      8081      8083      8085      8081      8083      8086      8082      8081      8083
      8083      8086      8087      8083      8086      8088      8084      8083      8085
      8084      8083      8086      8085      8083      8086      8086      8088      8089
      8086      8088      8090      8087      8086      8088      8088      8090      8091
      8088      8090      8092      8088      8090      8093      8089      8088      8090
      8090      8093      8094      8090      8093      8095      8090      8093      8096
      8091      8090      8092      8091      8090      8093      8092      8090      8093
      8093      8096      8097      8093      8096      8098      8093      8096      8099
      8094      8093      8095      8094      8093      8096      8095      8093      8096
      8096      8099      8100      8096      8099      8101      8096      8099      8102
      8097      8096      8098      8097      8096      8099      8098      8096      8099
      8099      8102      8103      8099      8102      8104      8099      8102      8105
      8100      8099      8101      8100      8099      8102      8101      8099      8102
      8103      8102      8104      8103      8102      8105      8104      8102      8105
      8106      8109      8110      8106      8109      8111      8106      8109      8112
      8107      8106      8108      8107      8106      8109      8108      8106      8109
      8109      8112      8113      8109      8112      8114      8109      8112      8115
      8110      8109      8111      8110      8109      8112      8111      8109      8112
      8112      8115      8116      8112      8115      8117      8112      8115      8118
      8113      8112      8114      8113      8112      8115      8114      8112      8115
      8115      8118      8119      8115      8118      8120      8115      8118      8121
      8116      8115      8117      8116      8115      8118      8117      8115      8118
      8118      8121      8122      8118      8121      8123      8118      8121      8124
      8119      8118      8120      8119      8118      8121      8120      8118      8121
      8121      8124      8125      8121      8124      8126      8121      8124      8127
      8122      8121      8123      8122      8121      8124      8123      8121      8124
      8124      8127      8128      8124      8127      8129      8124      8127      8130
      8125      8124      8126      8125      8124      8127      8126      8124      8127
      8127      8130      8131      8127      8130      8132      8127      8130      8133
      8128      8127      8129      8128      8127      8130      8129      8127      8130
      8130      8133      8134      8130      8133      8135      8130      8133      8136
      8131      8130      8132      8131      8130      8133      8132      8130      8133
      8133      8136      8137      8133      8136      8138      8133      8136      8139
      8134      8133      8135      8134      8133      8136      8135      8133      8136
      8136      8139      8140      8136      8139      8141      8136      8139      8142
      8137      8136      8138      8137      8136      8139      8138      8136      8139
      8139      8142      8143      8139      8142      8144      8139      8142      8145
      8140      8139      8141      8140      8139      8142      8141      8139      8142
      8142      8145      8146      8142      8145      8147      8142      8145      8148
      8143      8142      8144      8143      8142      8145      8144      8142      8145
      8145      8148      8149      8145      8148      8150      8145      8148      8151
      8146      8145      8147      8146      8145      8148      8147      8145      8148
      8148      8151      8152      8148      8151      8153      8148      8151      8154
      8149      8148      8150      8149      8148      8151      8150      8148      8151
      8152      8151      8153      8152      8151      8154      8153      8151      8154
      8155      8157      8158      8155      8159      8160      8155      8159      8161
      8155      8159      8162      8155      8201      8198      8155      8201      8202
      8155      8201      8203      8156      8155      8157      8156      8155      8159
      8156      8155      8201      8157      8155      8159      8157      8155      8201
      8159      8155      8201      8159      8162      8163      8159      8162      8193
      8160      8159      8161      8160      8159      8162      8161      8159      8162
      8162      8163      8164      8162      8163      8165      8162      8193      8191
      8162      8193      8194      8162      8193      8198      8163      8162      8193
      8163      8165      8166      8163      8165      8167      8163      8165      8168
      8164      8163      8165      8165      8168      8169      8165      8168      8170
      8165      8168      8191      8166      8165      8167      8166      8165      8168
      8167      8165      8168      8168      8170      8171      8168      8170      8172
      8168      8170      8180      8168      8191      8188      8168      8191      8192
      8168      8191      8193      8169      8168      8170      8169      8168      8191
      8170      8168      8191      8170      8172      8173      8170      8172      8174
      8170      8172      8175      8170      8180      8178      8170      8180      8181
      8170      8180      8185      8171      8170      8172      8171      8170      8180
      8172      8170      8180      8172      8175      8176      8172      8175      8177
      8172      8175      8178      8173      8172      8174      8173      8172      8175
      8174      8172      8175      8175      8178      8179      8175      8178      8180
      8175      8178      8204      8176      8175      8177      8176      8175      8178
      8177      8175      8178      8178      8180      8181      8178      8180      8185
      8178      8204      8205      8178      8204      8206      8178      8204      8210
      8179      8178      8180      8179      8178      8204      8180      8178      8204
      8180      8181      8182      8180      8181      8183      8180      8181      8184
      8180      8185      8186      8180      8185      8187      8180      8185      8188
      8181      8180      8185      8182      8181      8183      8182      8181      8184
      8183      8181      8184      8185      8188      8189      8185      8188      8190
      8185      8188      8191      8186      8185      8187      8186      8185      8188
      8187      8185      8188      8188      8191      8192      8188      8191      8193
      8189      8188      8190      8189      8188      8191      8190      8188      8191
      8191      8193      8194      8191      8193      8198      8192      8191      8193
      8193      8194      8195      8193      8194      8196      8193      8194      8197
      8193      8198      8199      8193      8198      8200      8193      8198      8201
      8194      8193      8198      8195      8194      8196      8195      8194      8197
      8196      8194      8197      8198      8201      8202      8198      8201      8203
      8199      8198      8200      8199      8198      8201      8200      8198      8201
      8202      8201      8203      8204      8206      8207      8204      8206      8208
      8204      8206      8209      8204      8210      8211      8204      8210      8212
      8204      8210      8213      8205      8204      8206      8205      8204      8210
      8206      8204      8210      8207      8206      8208      8207      8206      8209
      8208      8206      8209      8210      8213      8214      8210      8213      8215
      8210      8213      8216      8211      8210      8212      8211      8210      8213
      8212      8210      8213      8213      8216      8217      8213      8216      8218
      8213      8216      8219      8214      8213      8215      8214      8213      8216
      8215      8213      8216      8216      8219      8220      8216      8219      8221
      8216      8219      8225      8217      8216      8218      8217      8216      8219
      8218      8216      8219      8219      8221      8222      8219      8221      8223
      8219      8221      8224      8219      8225      8226      8219      8225      8227
      8219      8225      8228      8220      8219      8221      8220      8219      8225
      8221      8219      8225      8222      8221      8223      8222      8221      8224
      8223      8221      8224      8226      8225      8227      8226      8225      8228
      8227      8225      8228      8229      8230      8231      8229      8230      8232
      8229      8230      8233      8229      8234      8235      8229      8234      8236
      8229      8234      8237      8229      8238      8239      8229      8238      8240
      8229      8238      8241      8229      8242      8243      8229      8242      8244
      8229      8242      8245      8230      8229      8234      8230      8229      8238
      8230      8229      8242      8231      8230      8232      8231      8230      8233
      8232      8230      8233      8234      8229      8238      8234      8229      8242
      8235      8234      8236      8235      8234      8237      8236      8234      8237
      8238      8229      8242      8239      8238      8240      8239      8238      8241
      8240      8238      8241      8242      8245      8246      8242      8245      8247
      8242      8245      8252      8243      8242      8244      8243      8242      8245
      8244      8242      8245      8245      8252      8248      8246      8245      8247
      8246      8245      8252      8247      8245      8252      8248      8251      8253
      8249      8248      8250      8249      8248      8251      8249      8248      8252
      8250      8248      8251      8250      8248      8252      8251      8248      8252
      8251      8253      8254      8251      8253      8255      8251      8253      8258
      8253      8258      8256      8253      8258      8259      8253      8258      8260
      8254      8253      8255      8254      8253      8258      8255      8253      8258
      8256      8258      8259      8256      8258      8260      8256      8308      8309
      8256      8308      8310      8257      8256      8258      8257      8256      8308
      8258      8256      8308      8258      8260      8261      8258      8260      8262
      8258      8260      8264      8259      8258      8260      8260      8262      8263
      8260      8264      8265      8260      8264      8266      8261      8260      8262
      8261      8260      8264      8262      8260      8264      8264      8266      8267
      8264      8266      8268      8265      8264      8266      8266      8268      8269
      8266      8268      8270      8266      8268      8271      8267      8266      8268
      8268      8271      8272      8268      8271      8273      8268      8271      8274
      8269      8268      8270      8269      8268      8271      8270      8268      8271
      8271      8274      8275      8271      8274      8276      8271      8274      8277
      8272      8271      8273      8272      8271      8274      8273      8271      8274
      8274      8277      8278      8274      8277      8279      8274      8277      8280
      8275      8274      8276      8275      8274      8277      8276      8274      8277
      8277      8280      8281      8277      8280      8282      8277      8280      8283
      8278      8277      8279      8278      8277      8280      8279      8277      8280
      8280      8283      8284      8280      8283      8285      8280      8283      8286
      8281      8280      8282      8281      8280      8283      8282      8280      8283
      8283      8286      8287      8283      8286      8288      8283      8286      8289
      8284      8283      8285      8284      8283      8286      8285      8283      8286
      8286      8289      8290      8286      8289      8291      8286      8289      8292
      8287      8286      8288      8287      8286      8289      8288      8286      8289
      8289      8292      8293      8289      8292      8294      8289      8292      8295
      8290      8289      8291      8290      8289      8292      8291      8289      8292
      8292      8295      8296      8292      8295      8297      8292      8295      8298
      8293      8292      8294      8293      8292      8295      8294      8292      8295
      8295      8298      8299      8295      8298      8300      8295      8298      8301
      8296      8295      8297      8296      8295      8298      8297      8295      8298
      8298      8301      8302      8298      8301      8303      8298      8301      8304
      8299      8298      8300      8299      8298      8301      8300      8298      8301
      8301      8304      8305      8301      8304      8306      8301      8304      8307
      8302      8301      8303      8302      8301      8304      8303      8301      8304
      8305      8304      8306      8305      8304      8307      8306      8304      8307
      8308      8310      8311      8308      8310      8312      8308      8310      8313
      8309      8308      8310      8310      8313      8314      8310      8313      8315
      8310      8313      8316      8311      8310      8312      8311      8310      8313
      8312      8310      8313      8313      8316      8317      8313      8316      8318
      8313      8316      8319      8314      8313      8315      8314      8313      8316
      8315      8313      8316      8316      8319      8320      8316      8319      8321
      8316      8319      8322      8317      8316      8318      8317      8316      8319
      8318      8316      8319      8319      8322      8323      8319      8322      8324
      8319      8322      8325      8320      8319      8321      8320      8319      8322
      8321      8319      8322      8322      8325      8326      8322      8325      8327
      8322      8325      8328      8323      8322      8324      8323      8322      8325
      8324      8322      8325      8325      8328      8329      8325      8328      8330
      8325      8328      8331      8326      8325      8327      8326      8325      8328
      8327      8325      8328      8328      8331      8332      8328      8331      8333
      8329      8328      8330      8329      8328      8331      8330      8328      8331
      8331      8333      8334      8331      8333      8335      8332      8331      8333
      8333      8335      8336      8333      8335      8337      8333      8335      8338
      8334      8333      8335      8335      8338      8339      8335      8338      8340
      8335      8338      8341      8336      8335      8337      8336      8335      8338
      8337      8335      8338      8338      8341      8342      8338      8341      8343
      8338      8341      8344      8339      8338      8340      8339      8338      8341
      8340      8338      8341      8341      8344      8345      8341      8344      8346
      8341      8344      8347      8342      8341      8343      8342      8341      8344
      8343      8341      8344      8344      8347      8348      8344      8347      8349
      8344      8347      8350      8345      8344      8346      8345      8344      8347
      8346      8344      8347      8347      8350      8351      8347      8350      8352
      8347      8350      8353      8348      8347      8349      8348      8347      8350
      8349      8347      8350      8350      8353      8354      8350      8353      8355
      8350      8353      8356      8351      8350      8352      8351      8350      8353
      8352      8350      8353      8353      8356      8357      8353      8356      8358
      8353      8356      8359      8354      8353      8355      8354      8353      8356
      8355      8353      8356      8357      8356      8358      8357      8356      8359
      8358      8356      8359      8360      8361      8362      8360      8361      8363
      8360      8361      8364      8360      8365      8366      8360      8365      8367
      8360      8365      8368      8360      8369      8370      8360      8369      8371
      8360      8369      8372      8360      8373      8374      8360      8373      8375
      8360      8373      8376      8361      8360      8365      8361      8360      8369
      8361      8360      8373      8362      8361      8363      8362      8361      8364
      8363      8361      8364      8365      8360      8369      8365      8360      8373
      8366      8365      8367      8366      8365      8368      8367      8365      8368
      8369      8360      8373      8370      8369      8371      8370      8369      8372
      8371      8369      8372      8373      8376      8377      8373      8376      8378
      8373      8376      8382      8374      8373      8375      8374      8373      8376
      8375      8373      8376      8376      8382      8379      8377      8376      8378
      8377      8376      8382      8378      8376      8382      8379      8383      8384
      8380      8379      8381      8380      8379      8382      8380      8379      8383
      8381      8379      8382      8381      8379      8383      8382      8379      8383
      8383      8384      8385      8383      8384      8386      8383      8384      8387
      8384      8387      8388      8384      8387      8389      8384      8387      8395
      8385      8384      8386      8385      8384      8387      8386      8384      8387
      8387      8389      8390      8387      8395      8396      8387      8395      8397
      8387      8395      8398      8388      8387      8389      8388      8387      8395
      8389      8387      8395      8389      8390      8391      8389      8390      8392
      8390      8392      8393      8390      8392      8394      8390      8392      8404
      8391      8390      8392      8392      8404      8405      8392      8404      8406
      8392      8404      8407      8393      8392      8394      8393      8392      8404
      8394      8392      8404      8395      8398      8399      8396      8395      8397
      8396      8395      8398      8397      8395      8398      8398      8399      8400
      8398      8399      8401      8399      8401      8402      8399      8401      8403
      8399      8401      8449      8400      8399      8401      8401      8449      8450
      8401      8449      8451      8401      8449      8452      8402      8401      8403
      8402      8401      8449      8403      8401      8449      8404      8407      8408
      8404      8407      8409      8404      8407      8410      8405      8404      8406
      8405      8404      8407      8406      8404      8407      8407      8410      8411
      8407      8410      8412      8407      8410      8413      8408      8407      8409
      8408      8407      8410      8409      8407      8410      8410      8413      8414
      8410      8413      8415      8410      8413      8416      8411      8410      8412
      8411      8410      8413      8412      8410      8413      8413      8416      8417
      8413      8416      8418      8413      8416      8419      8414      8413      8415
      8414      8413      8416      8415      8413      8416      8416      8419      8420
      8416      8419      8421      8416      8419      8422      8417      8416      8418
      8417      8416      8419      8418      8416      8419      8419      8422      8423
      8419      8422      8424      8420      8419      8421      8420      8419      8422
      8421      8419      8422      8422      8424      8425      8422      8424      8426
      8423      8422      8424      8424      8426      8427      8424      8426      8428
      8424      8426      8429      8425      8424      8426      8426      8429      8430
      8426      8429      8431      8427      8426      8428      8427      8426      8429
      8428      8426      8429      8429      8431      8432      8429      8431      8433
      8430      8429      8431      8431      8433      8434      8431      8433      8435
      8431      8433      8436      8432      8431      8433      8433      8436      8437
      8433      8436      8438      8433      8436      8439      8434      8433      8435
      8434      8433      8436      8435      8433      8436      8436      8439      8440
      8436      8439      8441      8436      8439      8442      8437      8436      8438
      8437      8436      8439      8438      8436      8439      8439      8442      8443
      8439      8442      8444      8439      8442      8445      8440      8439      8441
      8440      8439      8442      8441      8439      8442      8442      8445      8446
      8442      8445      8447      8442      8445      8448      8443      8442      8444
      8443      8442      8445      8444      8442      8445      8446      8445      8447
      8446      8445      8448      8447      8445      8448      8449      8452      8453
      8449      8452      8454      8449      8452      8455      8450      8449      8451
      8450      8449      8452      8451      8449      8452      8452      8455      8456
      8452      8455      8457      8452      8455      8458      8453      8452      8454
      8453      8452      8455      8454      8452      8455      8455      8458      8459
      8455      8458      8460      8455      8458      8461      8456      8455      8457
      8456      8455      8458      8457      8455      8458      8458      8461      8462
      8458      8461      8463      8458      8461      8464      8459      8458      8460
      8459      8458      8461      8460      8458      8461      8461      8464      8465
      8461      8464      8466      8461      8464      8467      8462      8461      8463
      8462      8461      8464      8463      8461      8464      8464      8467      8468
      8464      8467      8469      8464      8467      8470      8465      8464      8466
      8465      8464      8467      8466      8464      8467      8467      8470      8471
      8467      8470      8472      8467      8470      8473      8468      8467      8469
      8468      8467      8470      8469      8467      8470      8470      8473      8474
      8470      8473      8475      8470      8473      8476      8471      8470      8472
      8471      8470      8473      8472      8470      8473      8473      8476      8477
      8473      8476      8478      8473      8476      8479      8474      8473      8475
      8474      8473      8476      8475      8473      8476      8476      8479      8480
      8476      8479      8481      8476      8479      8482      8477      8476      8478
      8477      8476      8479      8478      8476      8479      8479      8482      8483
      8479      8482      8484      8479      8482      8485      8480      8479      8481
      8480      8479      8482      8481      8479      8482      8482      8485      8486
      8482      8485      8487      8482      8485      8488      8483      8482      8484
      8483      8482      8485      8484      8482      8485      8485      8488      8489
      8485      8488      8490      8485      8488      8491      8486      8485      8487
      8486      8485      8488      8487      8485      8488      8488      8491      8492
      8488      8491      8493      8488      8491      8494      8489      8488      8490
      8489      8488      8491      8490      8488      8491      8491      8494      8495
      8491      8494      8496      8491      8494      8497      8492      8491      8493
      8492      8491      8494      8493      8491      8494      8495      8494      8496
      8495      8494      8497      8496      8494      8497      8498      8502      8503
      8498      8502      8504      8498      8502      8507      8499      8498      8500
      8499      8498      8501      8499      8498      8502      8500      8498      8501
      8500      8498      8502      8501      8498      8502      8502      8504      8505
      8502      8504      8506      8502      8507      8508      8502      8507      8509
      8502      8507      8513      8503      8502      8504      8503      8502      8507
      8504      8502      8507      8505      8504      8506      8507      8513      8510
      8508      8507      8509      8508      8507      8513      8509      8507      8513
      8510      8514      8515      8511      8510      8512      8511      8510      8513
      8511      8510      8514      8512      8510      8513      8512      8510      8514
      8513      8510      8514      8514      8515      8516      8514      8515      8517
      8514      8515      8518      8515      8518      8519      8515      8518      8520
      8515      8518      8526      8516      8515      8517      8516      8515      8518
      8517      8515      8518      8518      8520      8521      8518      8526      8527
      8518      8526      8528      8518      8526      8529      8519      8518      8520
      8519      8518      8526      8520      8518      8526      8520      8521      8522
      8520      8521      8523      8521      8523      8524      8521      8523      8525
      8521      8523      8535      8522      8521      8523      8523      8535      8536
      8523      8535      8537      8523      8535      8538      8524      8523      8525
      8524      8523      8535      8525      8523      8535      8526      8529      8530
      8527      8526      8528      8527      8526      8529      8528      8526      8529
      8529      8530      8531      8529      8530      8532      8530      8532      8533
      8530      8532      8534      8530      8532      8582      8531      8530      8532
      8532      8582      8583      8532      8582      8584      8532      8582      8585
      8533      8532      8534      8533      8532      8582      8534      8532      8582
      8535      8538      8539      8535      8538      8540      8535      8538      8541
      8536      8535      8537      8536      8535      8538      8537      8535      8538
      8538      8541      8542      8538      8541      8543      8539      8538      8540
      8539      8538      8541      8540      8538      8541      8541      8543      8544
      8541      8543      8545      8542      8541      8543      8543      8545      8546
      8543      8545      8547      8543      8545      8548      8544      8543      8545
      8545      8548      8549      8545      8548      8550      8546      8545      8547
      8546      8545      8548      8547      8545      8548      8548      8550      8551
      8548      8550      8552      8549      8548      8550      8550      8552      8553
      8550      8552      8554      8550      8552      8555      8551      8550      8552
      8552      8555      8556      8552      8555      8557      8553      8552      8554
      8553      8552      8555      8554      8552      8555      8555      8557      8558
      8555      8557      8559      8556      8555      8557      8557      8559      8560
      8557      8559      8561      8557      8559      8562      8558      8557      8559
      8559      8562      8563      8559      8562      8564      8560      8559      8561
      8560      8559      8562      8561      8559      8562      8562      8564      8565
      8562      8564      8566      8563      8562      8564      8564      8566      8567
      8564      8566      8568      8564      8566      8569      8565      8564      8566
      8566      8569      8570      8566      8569      8571      8566      8569      8572
      8567      8566      8568      8567      8566      8569      8568      8566      8569
      8569      8572      8573      8569      8572      8574      8569      8572      8575
      8570      8569      8571      8570      8569      8572      8571      8569      8572
      8572      8575      8576      8572      8575      8577      8572      8575      8578
      8573      8572      8574      8573      8572      8575      8574      8572      8575
      8575      8578      8579      8575      8578      8580      8575      8578      8581
      8576      8575      8577      8576      8575      8578      8577      8575      8578
      8579      8578      8580      8579      8578      8581      8580      8578      8581
      8582      8585      8586      8582      8585      8587      8582      8585      8588
      8583      8582      8584      8583      8582      8585      8584      8582      8585
      8585      8588      8589      8585      8588      8590      8585      8588      8591
      8586      8585      8587      8586      8585      8588      8587      8585      8588
      8588      8591      8592      8588      8591      8593      8588      8591      8594
      8589      8588      8590      8589      8588      8591      8590      8588      8591
      8591      8594      8595      8591      8594      8596      8591      8594      8597
      8592      8591      8593      8592      8591      8594      8593      8591      8594
      8594      8597      8598      8594      8597      8599      8594      8597      8600
      8595      8594      8596      8595      8594      8597      8596      8594      8597
      8597      8600      8601      8597      8600      8602      8597      8600      8603
      8598      8597      8599      8598      8597      8600      8599      8597      8600
      8600      8603      8604      8600      8603      8605      8600      8603      8606
      8601      8600      8602      8601      8600      8603      8602      8600      8603
      8603      8606      8607      8603      8606      8608      8603      8606      8609
      8604      8603      8605      8604      8603      8606      8605      8603      8606
      8606      8609      8610      8606      8609      8611      8606      8609      8612
      8607      8606      8608      8607      8606      8609      8608      8606      8609
      8609      8612      8613      8609      8612      8614      8609      8612      8615
      8610      8609      8611      8610      8609      8612      8611      8609      8612
      8612      8615      8616      8612      8615      8617      8612      8615      8618
      8613      8612      8614      8613      8612      8615      8614      8612      8615
      8615      8618      8619      8615      8618      8620      8615      8618      8621
      8616      8615      8617      8616      8615      8618      8617      8615      8618
      8618      8621      8622      8618      8621      8623      8618      8621      8624
      8619      8618      8620      8619      8618      8621      8620      8618      8621
      8621      8624      8625      8621      8624      8626      8621      8624      8627
      8622      8621      8623      8622      8621      8624      8623      8621      8624
      8624      8627      8628      8624      8627      8629      8624      8627      8630
      8625      8624      8626      8625      8624      8627      8626      8624      8627
      8628      8627      8629      8628      8627      8630      8629      8627      8630
      8631      8635      8636      8631      8635      8637      8631      8635      8640
      8632      8631      8633      8632      8631      8634      8632      8631      8635
      8633      8631      8634      8633      8631      8635      8634      8631      8635
      8635      8637      8638      8635      8637      8639      8635      8640      8641
      8635      8640      8642      8635      8640      8646      8636      8635      8637
      8636      8635      8640      8637      8635      8640      8638      8637      8639
      8640      8646      8643      8641      8640      8642      8641      8640      8646
      8642      8640      8646      8643      8647      8648      8644      8643      8645
      8644      8643      8646      8644      8643      8647      8645      8643      8646
      8645      8643      8647      8646      8643      8647      8647      8648      8649
      8647      8648      8650      8647      8648      8651      8648      8651      8652
      8648      8651      8653      8648      8651      8659      8649      8648      8650
      8649      8648      8651      8650      8648      8651      8651      8653      8654
      8651      8659      8660      8651      8659      8661      8651      8659      8662
      8652      8651      8653      8652      8651      8659      8653      8651      8659
      8653      8654      8655      8653      8654      8656      8654      8656      8657
      8654      8656      8658      8654      8656      8668      8655      8654      8656
      8656      8668      8669      8656      8668      8670      8656      8668      8671
      8657      8656      8658      8657      8656      8668      8658      8656      8668
      8659      8662      8663      8660      8659      8661      8660      8659      8662
      8661      8659      8662      8662      8663      8664      8662      8663      8665
      8663      8665      8666      8663      8665      8667      8663      8665      8715
      8664      8663      8665      8665      8715      8716      8665      8715      8717
      8665      8715      8718      8666      8665      8667      8666      8665      8715
      8667      8665      8715      8668      8671      8672      8668      8671      8673
      8668      8671      8674      8669      8668      8670      8669      8668      8671
      8670      8668      8671      8671      8674      8675      8671      8674      8676
      8672      8671      8673      8672      8671      8674      8673      8671      8674
      8674      8676      8677      8674      8676      8678      8675      8674      8676
      8676      8678      8679      8676      8678      8680      8676      8678      8681
      8677      8676      8678      8678      8681      8682      8678      8681      8683
      8679      8678      8680      8679      8678      8681      8680      8678      8681
      8681      8683      8684      8681      8683      8685      8682      8681      8683
      8683      8685      8686      8683      8685      8687      8683      8685      8688
      8684      8683      8685      8685      8688      8689      8685      8688      8690
      8686      8685      8687      8686      8685      8688      8687      8685      8688
      8688      8690      8691      8688      8690      8692      8689      8688      8690
      8690      8692      8693      8690      8692      8694      8690      8692      8695
      8691      8690      8692      8692      8695      8696      8692      8695      8697
      8693      8692      8694      8693      8692      8695      8694      8692      8695
      8695      8697      8698      8695      8697      8699      8696      8695      8697
      8697      8699      8700      8697      8699      8701      8697      8699      8702
      8698      8697      8699      8699      8702      8703      8699      8702      8704
      8699      8702      8705      8700      8699      8701      8700      8699      8702
      8701      8699      8702      8702      8705      8706      8702      8705      8707
      8702      8705      8708      8703      8702      8704      8703      8702      8705
      8704      8702      8705      8705      8708      8709      8705      8708      8710
      8705      8708      8711      8706      8705      8707      8706      8705      8708
      8707      8705      8708      8708      8711      8712      8708      8711      8713
      8708      8711      8714      8709      8708      8710      8709      8708      8711
      8710      8708      8711      8712      8711      8713      8712      8711      8714
      8713      8711      8714      8715      8718      8719      8715      8718      8720
      8715      8718      8721      8716      8715      8717      8716      8715      8718
      8717      8715      8718      8718      8721      8722      8718      8721      8723
      8718      8721      8724      8719      8718      8720      8719      8718      8721
      8720      8718      8721      8721      8724      8725      8721      8724      8726
      8721      8724      8727      8722      8721      8723      8722      8721      8724
      8723      8721      8724      8724      8727      8728      8724      8727      8729
      8724      8727      8730      8725      8724      8726      8725      8724      8727
      8726      8724      8727      8727      8730      8731      8727      8730      8732
      8727      8730      8733      8728      8727      8729      8728      8727      8730
      8729      8727      8730      8730      8733      8734      8730      8733      8735
      8730      8733      8736      8731      8730      8732      8731      8730      8733
      8732      8730      8733      8733      8736      8737      8733      8736      8738
      8733      8736      8739      8734      8733      8735      8734      8733      8736
      8735      8733      8736      8736      8739      8740      8736      8739      8741
      8736      8739      8742      8737      8736      8738      8737      8736      8739
      8738      8736      8739      8739      8742      8743      8739      8742      8744
      8739      8742      8745      8740      8739      8741      8740      8739      8742
      8741      8739      8742      8742      8745      8746      8742      8745      8747
      8742      8745      8748      8743      8742      8744      8743      8742      8745
      8744      8742      8745      8745      8748      8749      8745      8748      8750
      8745      8748      8751      8746      8745      8747      8746      8745      8748
      8747      8745      8748      8748      8751      8752      8748      8751      8753
      8748      8751      8754      8749      8748      8750      8749      8748      8751
      8750      8748      8751      8751      8754      8755      8751      8754      8756
      8751      8754      8757      8752      8751      8753      8752      8751      8754
      8753      8751      8754      8754      8757      8758      8754      8757      8759
      8754      8757      8760      8755      8754      8756      8755      8754      8757
      8756      8754      8757      8757      8760      8761      8757      8760      8762
      8757      8760      8763      8758      8757      8759      8758      8757      8760
      8759      8757      8760      8761      8760      8762      8761      8760      8763
      8762      8760      8763      8764      8765      8766      8764      8765      8767
      8764      8765      8780      8764      8768      8769      8764      8768      8770
      8764      8768      8771      8764      8772      8773      8764      8772      8774
      8764      8772      8775      8764      8776      8777      8764      8776      8778
      8764      8776      8779      8765      8764      8768      8765      8764      8772
      8765      8764      8776      8765      8780      8781      8765      8780      8782
      8765      8780      8786      8766      8765      8767      8766      8765      8780
      8767      8765      8780      8768      8764      8772      8768      8764      8776
      8769      8768      8770      8769      8768      8771      8770      8768      8771
      8772      8764      8776      8773      8772      8774      8773      8772      8775
      8774      8772      8775      8777      8776      8778      8777      8776      8779
      8778      8776      8779      8780      8786      8783      8781      8780      8782
      8781      8780      8786      8782      8780      8786      8783      8787      8788
      8784      8783      8785      8784      8783      8786      8784      8783      8787
      8785      8783      8786      8785      8783      8787      8786      8783      8787
      8787      8788      8789      8787      8788      8790      8787      8788      8791
      8788      8791      8792      8788      8791      8793      8788      8791      8799
      8789      8788      8790      8789      8788      8791      8790      8788      8791
      8791      8793      8794      8791      8799      8800      8791      8799      8801
      8791      8799      8802      8792      8791      8793      8792      8791      8799
      8793      8791      8799      8793      8794      8795      8793      8794      8796
      8794      8796      8797      8794      8796      8798      8794      8796      8808
      8795      8794      8796      8796      8808      8809      8796      8808      8810
      8796      8808      8811      8797      8796      8798      8797      8796      8808
      8798      8796      8808      8799      8802      8803      8800      8799      8801
      8800      8799      8802      8801      8799      8802      8802      8803      8804
      8802      8803      8805      8803      8805      8806      8803      8805      8807
      8803      8805      8855      8804      8803      8805      8805      8855      8856
      8805      8855      8857      8805      8855      8858      8806      8805      8807
      8806      8805      8855      8807      8805      8855      8808      8811      8812
      8808      8811      8813      8808      8811      8814      8809      8808      8810
      8809      8808      8811      8810      8808      8811      8811      8814      8815
      8811      8814      8816      8811      8814      8817      8812      8811      8813
      8812      8811      8814      8813      8811      8814      8814      8817      8818
      8814      8817      8819      8814      8817      8820      8815      8814      8816
      8815      8814      8817      8816      8814      8817      8817      8820      8821
      8817      8820      8822      8817      8820      8823      8818      8817      8819
      8818      8817      8820      8819      8817      8820      8820      8823      8824
      8820      8823      8825      8820      8823      8826      8821      8820      8822
      8821      8820      8823      8822      8820      8823      8823      8826      8827
      8823      8826      8828      8824      8823      8825      8824      8823      8826
      8825      8823      8826      8826      8828      8829      8826      8828      8830
      8827      8826      8828      8828      8830      8831      8828      8830      8832
      8828      8830      8833      8829      8828      8830      8830      8833      8834
      8830      8833      8835      8830      8833      8836      8831      8830      8832
      8831      8830      8833      8832      8830      8833      8833      8836      8837
      8833      8836      8838      8833      8836      8839      8834      8833      8835
      8834      8833      8836      8835      8833      8836      8836      8839      8840
      8836      8839      8841      8836      8839      8842      8837      8836      8838
      8837      8836      8839      8838      8836      8839      8839      8842      8843
      8839      8842      8844      8839      8842      8845      8840      8839      8841
      8840      8839      8842      8841      8839      8842      8842      8845      8846
      8842      8845      8847      8842      8845      8848      8843      8842      8844
      8843      8842      8845      8844      8842      8845      8845      8848      8849
      8845      8848      8850      8845      8848      8851      8846      8845      8847
      8846      8845      8848      8847      8845      8848      8848      8851      8852
      8848      8851      8853      8848      8851      8854      8849      8848      8850
      8849      8848      8851      8850      8848      8851      8852      8851      8853
      8852      8851      8854      8853      8851      8854      8855      8858      8859
      8855      8858      8860      8855      8858      8861      8856      8855      8857
      8856      8855      8858      8857      8855      8858      8858      8861      8862
      8858      8861      8863      8858      8861      8864      8859      8858      8860
      8859      8858      8861      8860      8858      8861      8861      8864      8865
      8861      8864      8866      8861      8864      8867      8862      8861      8863
      8862      8861      8864      8863      8861      8864      8864      8867      8868
      8864      8867      8869      8864      8867      8870      8865      8864      8866
      8865      8864      8867      8866      8864      8867      8867      8870      8871
      8867      8870      8872      8867      8870      8873      8868      8867      8869
      8868      8867      8870      8869      8867      8870      8870      8873      8874
      8870      8873      8875      8870      8873      8876      8871      8870      8872
      8871      8870      8873      8872      8870      8873      8873      8876      8877
      8873      8876      8878      8873      8876      8879      8874      8873      8875
      8874      8873      8876      8875      8873      8876      8876      8879      8880
      8876      8879      8881      8876      8879      8882      8877      8876      8878
      8877      8876      8879      8878      8876      8879      8879      8882      8883
      8879      8882      8884      8879      8882      8885      8880      8879      8881
      8880      8879      8882      8881      8879      8882      8882      8885      8886
      8882      8885      8887      8882      8885      8888      8883      8882      8884
      8883      8882      8885      8884      8882      8885      8885      8888      8889
      8885      8888      8890      8885      8888      8891      8886      8885      8887
      8886      8885      8888      8887      8885      8888      8888      8891      8892
      8888      8891      8893      8888      8891      8894      8889      8888      8890
      8889      8888      8891      8890      8888      8891      8891      8894      8895
      8891      8894      8896      8891      8894      8897      8892      8891      8893
      8892      8891      8894      8893      8891      8894      8895      8894      8896
      8895      8894      8897      8896      8894      8897      8898      8899      8900
      8898      8899      8901      8898      8899      8902      8898      8903      8904
      8898      8903      8905      8898      8903      8906      8898      8907      8908
      8898      8907      8909      8898      8907      8910      8898      8911      8912
      8898      8911      8913      8898      8911      8914      8899      8898      8903
      8899      8898      8907      8899      8898      8911      8900      8899      8901
      8900      8899      8902      8901      8899      8902      8903      8898      8907
      8903      8898      8911      8904      8903      8905      8904      8903      8906
      8905      8903      8906      8907      8898      8911      8908      8907      8909
      8908      8907      8910      8909      8907      8910      8911      8914      8915
      8911      8914      8916      8911      8914      8921      8912      8911      8913
      8912      8911      8914      8913      8911      8914      8914      8921      8917
      8915      8914      8916      8915      8914      8921      8916      8914      8921
      8917      8920      8922      8918      8917      8919      8918      8917      8920
      8918      8917      8921      8919      8917      8920      8919      8917      8921
      8920      8917      8921      8920      8922      8923      8920      8922      8924
      8920      8922      8927      8922      8927      8925      8922      8927      8928
      8922      8927      8929      8923      8922      8924      8923      8922      8927
      8924      8922      8927      8925      8927      8928      8925      8927      8929
      8925      8977      8978      8925      8977      8979      8926      8925      8927
      8926      8925      8977      8927      8925      8977      8927      8929      8930
      8927      8929      8931      8927      8929      8933      8928      8927      8929
      8929      8931      8932      8929      8933      8934      8929      8933      8935
      8930      8929      8931      8930      8929      8933      8931      8929      8933
      8933      8935      8936      8933      8935      8937      8934      8933      8935
      8935      8937      8938      8935      8937      8939      8935      8937      8940
      8936      8935      8937      8937      8940      8941      8937      8940      8942
      8937      8940      8943      8938      8937      8939      8938      8937      8940
      8939      8937      8940      8940      8943      8944      8940      8943      8945
      8940      8943      8946      8941      8940      8942      8941      8940      8943
      8942      8940      8943      8943      8946      8947      8943      8946      8948
      8943      8946      8949      8944      8943      8945      8944      8943      8946
      8945      8943      8946      8946      8949      8950      8946      8949      8951
      8946      8949      8952      8947      8946      8948      8947      8946      8949
      8948      8946      8949      8949      8952      8953      8949      8952      8954
      8949      8952      8955      8950      8949      8951      8950      8949      8952
      8951      8949      8952      8952      8955      8956      8952      8955      8957
      8952      8955      8958      8953      8952      8954      8953      8952      8955
      8954      8952      8955      8955      8958      8959      8955      8958      8960
      8955      8958      8961      8956      8955      8957      8956      8955      8958
      8957      8955      8958      8958      8961      8962      8958      8961      8963
      8958      8961      8964      8959      8958      8960      8959      8958      8961
      8960      8958      8961      8961      8964      8965      8961      8964      8966
      8961      8964      8967      8962      8961      8963      8962      8961      8964
      8963      8961      8964      8964      8967      8968      8964      8967      8969
      8964      8967      8970      8965      8964      8966      8965      8964      8967
      8966      8964      8967      8967      8970      8971      8967      8970      8972
      8967      8970      8973      8968      8967      8969      8968      8967      8970
      8969      8967      8970      8970      8973      8974      8970      8973      8975
      8970      8973      8976      8971      8970      8972      8971      8970      8973
      8972      8970      8973      8974      8973      8975      8974      8973      8976
      8975      8973      8976      8977      8979      8980      8977      8979      8981
      8977      8979      8982      8978      8977      8979      8979      8982      8983
      8979      8982      8984      8979      8982      8985      8980      8979      8981
      8980      8979      8982      8981      8979      8982      8982      8985      8986
      8982      8985      8987      8982      8985      8988      8983      8982      8984
      8983      8982      8985      8984      8982      8985      8985      8988      8989
      8985      8988      8990      8985      8988      8991      8986      8985      8987
      8986      8985      8988      8987      8985      8988      8988      8991      8992
      8988      8991      8993      8988      8991      8994      8989      8988      8990
      8989      8988      8991      8990      8988      8991      8991      8994      8995
      8991      8994      8996      8991      8994      8997      8992      8991      8993
      8992      8991      8994      8993      8991      8994      8994      8997      8998
      8994      8997      8999      8994      8997      9000      8995      8994      8996
      8995      8994      8997      8996      8994      8997      8997      9000      9001
      8997      9000      9002      8998      8997      8999      8998      8997      9000
      8999      8997      9000      9000      9002      9003      9000      9002      9004
      9001      9000      9002      9002      9004      9005      9002      9004      9006
      9002      9004      9007      9003      9002      9004      9004      9007      9008
      9004      9007      9009      9004      9007      9010      9005      9004      9006
      9005      9004      9007      9006      9004      9007      9007      9010      9011
      9007      9010      9012      9007      9010      9013      9008      9007      9009
      9008      9007      9010      9009      9007      9010      9010      9013      9014
      9010      9013      9015      9010      9013      9016      9011      9010      9012
      9011      9010      9013      9012      9010      9013      9013      9016      9017
      9013      9016      9018      9013      9016      9019      9014      9013      9015
      9014      9013      9016      9015      9013      9016      9016      9019      9020
      9016      9019      9021      9016      9019      9022      9017      9016      9018
      9017      9016      9019      9018      9016      9019      9019      9022      9023
      9019      9022      9024      9019      9022      9025      9020      9019      9021
      9020      9019      9022      9021      9019      9022      9022      9025      9026
      9022      9025      9027      9022      9025      9028      9023      9022      9024
      9023      9022      9025      9024      9022      9025      9026      9025      9027
      9026      9025      9028      9027      9025      9028      9029      9033      9034
      9029      9033      9035      9029      9033      9036      9030      9029      9031
      9030      9029      9032      9030      9029      9033      9031      9029      9032
      9031      9029      9033      9032      9029      9033      9033      9036      9037
      9033      9036      9038      9033      9036      9042      9034      9033      9035
      9034      9033      9036      9035      9033      9036      9036      9042      9039
      9037      9036      9038      9037      9036      9042      9038      9036      9042
      9039      9043      9044      9040      9039      9041      9040      9039      9042
      9040      9039      9043      9041      9039      9042      9041      9039      9043
      9042      9039      9043      9043      9044      9045      9043      9044      9046
      9043      9044      9047      9044      9047      9048      9044      9047      9049
      9044      9047      9055      9045      9044      9046      9045      9044      9047
      9046      9044      9047      9047      9049      9050      9047      9055      9056
      9047      9055      9057      9047      9055      9058      9048      9047      9049
      9048      9047      9055      9049      9047      9055      9049      9050      9051
      9049      9050      9052      9050      9052      9053      9050      9052      9054
      9050      9052      9064      9051      9050      9052      9052      9064      9065
      9052      9064      9066      9052      9064      9067      9053      9052      9054
      9053      9052      9064      9054      9052      9064      9055      9058      9059
      9056      9055      9057      9056      9055      9058      9057      9055      9058
      9058      9059      9060      9058      9059      9061      9059      9061      9062
      9059      9061      9063      9059      9061      9111      9060      9059      9061
      9061      9111      9112      9061      9111      9113      9061      9111      9114
      9062      9061      9063      9062      9061      9111      9063      9061      9111
      9064      9067      9068      9064      9067      9069      9064      9067      9070
      9065      9064      9066      9065      9064      9067      9066      9064      9067
      9067      9070      9071      9067      9070      9072      9068      9067      9069
      9068      9067      9070      9069      9067      9070      9070      9072      9073
      9070      9072      9074      9071      9070      9072      9072      9074      9075
      9072      9074      9076      9072      9074      9077      9073      9072      9074
      9074      9077      9078      9074      9077      9079      9075      9074      9076
      9075      9074      9077      9076      9074      9077      9077      9079      9080
      9077      9079      9081      9078      9077      9079      9079      9081      9082
      9079      9081      9083      9079      9081      9084      9080      9079      9081
      9081      9084      9085      9081      9084      9086      9082      9081      9083
      9082      9081      9084      9083      9081      9084      9084      9086      9087
      9084      9086      9088      9085      9084      9086      9086      9088      9089
      9086      9088      9090      9086      9088      9091      9087      9086      9088
      9088      9091      9092      9088      9091      9093      9089      9088      9090
      9089      9088      9091      9090      9088      9091      9091      9093      9094
      9091      9093      9095      9092      9091      9093      9093      9095      9096
      9093      9095      9097      9093      9095      9098      9094      9093      9095
      9095      9098      9099      9095      9098      9100      9095      9098      9101
      9096      9095      9097      9096      9095      9098      9097      9095      9098
      9098      9101      9102      9098      9101      9103      9098      9101      9104
      9099      9098      9100      9099      9098      9101      9100      9098      9101
      9101      9104      9105      9101      9104      9106      9101      9104      9107
      9102      9101      9103      9102      9101      9104      9103      9101      9104
      9104      9107      9108      9104      9107      9109      9104      9107      9110
      9105      9104      9106      9105      9104      9107      9106      9104      9107
      9108      9107      9109      9108      9107      9110      9109      9107      9110
      9111      9114      9115      9111      9114      9116      9111      9114      9117
      9112      9111      9113      9112      9111      9114      9113      9111      9114
      9114      9117      9118      9114      9117      9119      9114      9117      9120
      9115      9114      9116      9115      9114      9117      9116      9114      9117
      9117      9120      9121      9117      9120      9122      9117      9120      9123
      9118      9117      9119      9118      9117      9120      9119      9117      9120
      9120      9123      9124      9120      9123      9125      9120      9123      9126
      9121      9120      9122      9121      9120      9123      9122      9120      9123
      9123      9126      9127      9123      9126      9128      9123      9126      9129
      9124      9123      9125      9124      9123      9126      9125      9123      9126
      9126      9129      9130      9126      9129      9131      9126      9129      9132
      9127      9126      9128      9127      9126      9129      9128      9126      9129
      9129      9132      9133      9129      9132      9134      9129      9132      9135
      9130      9129      9131      9130      9129      9132      9131      9129      9132
      9132      9135      9136      9132      9135      9137      9132      9135      9138
      9133      9132      9134      9133      9132      9135      9134      9132      9135
      9135      9138      9139      9135      9138      9140      9135      9138      9141
      9136      9135      9137      9136      9135      9138      9137      9135      9138
      9138      9141      9142      9138      9141      9143      9138      9141      9144
      9139      9138      9140      9139      9138      9141      9140      9138      9141
      9141      9144      9145      9141      9144      9146      9141      9144      9147
      9142      9141      9143      9142      9141      9144      9143      9141      9144
      9144      9147      9148      9144      9147      9149      9144      9147      9150
      9145      9144      9146      9145      9144      9147      9146      9144      9147
      9147      9150      9151      9147      9150      9152      9147      9150      9153
      9148      9147      9149      9148      9147      9150      9149      9147      9150
      9150      9153      9154      9150      9153      9155      9150      9153      9156
      9151      9150      9152      9151      9150      9153      9152      9150      9153
      9153      9156      9157      9153      9156      9158      9153      9156      9159
      9154      9153      9155      9154      9153      9156      9155      9153      9156
      9157      9156      9158      9157      9156      9159      9158      9156      9159
      9160      9162      9163      9160      9164      9165      9160      9164      9166
      9160      9164      9167      9160      9206      9203      9160      9206      9207
      9160      9206      9208      9161      9160      9162      9161      9160      9164
      9161      9160      9206      9162      9160      9164      9162      9160      9206
      9164      9160      9206      9164      9167      9168      9164      9167      9198
      9165      9164      9166      9165      9164      9167      9166      9164      9167
      9167      9168      9169      9167      9168      9170      9167      9198      9196
      9167      9198      9199      9167      9198      9203      9168      9167      9198
      9168      9170      9171      9168      9170      9172      9168      9170      9173
      9169      9168      9170      9170      9173      9174      9170      9173      9175
      9170      9173      9196      9171      9170      9172      9171      9170      9173
      9172      9170      9173      9173      9175      9176      9173      9175      9177
      9173      9175      9185      9173      9196      9193      9173      9196      9197
      9173      9196      9198      9174      9173      9175      9174      9173      9196
      9175      9173      9196      9175      9177      9178      9175      9177      9179
      9175      9177      9180      9175      9185      9183      9175      9185      9186
      9175      9185      9190      9176      9175      9177      9176      9175      9185
      9177      9175      9185      9177      9180      9181      9177      9180      9182
      9177      9180      9183      9178      9177      9179      9178      9177      9180
      9179      9177      9180      9180      9183      9184      9180      9183      9185
      9180      9183      9209      9181      9180      9182      9181      9180      9183
      9182      9180      9183      9183      9185      9186      9183      9185      9190
      9183      9209      9210      9183      9209      9211      9183      9209      9215
      9184      9183      9185      9184      9183      9209      9185      9183      9209
      9185      9186      9187      9185      9186      9188      9185      9186      9189
      9185      9190      9191      9185      9190      9192      9185      9190      9193
      9186      9185      9190      9187      9186      9188      9187      9186      9189
      9188      9186      9189      9190      9193      9194      9190      9193      9195
      9190      9193      9196      9191      9190      9192      9191      9190      9193
      9192      9190      9193      9193      9196      9197      9193      9196      9198
      9194      9193      9195      9194      9193      9196      9195      9193      9196
      9196      9198      9199      9196      9198      9203      9197      9196      9198
      9198      9199      9200      9198      9199      9201      9198      9199      9202
      9198      9203      9204      9198      9203      9205      9198      9203      9206
      9199      9198      9203      9200      9199      9201      9200      9199      9202
      9201      9199      9202      9203      9206      9207      9203      9206      9208
      9204      9203      9205      9204      9203      9206      9205      9203      9206
      9207      9206      9208      9209      9211      9212      9209      9211      9213
      9209      9211      9214      9209      9215      9216      9209      9215      9217
      9209      9215      9218      9210      9209      9211      9210      9209      9215
      9211      9209      9215      9212      9211      9213      9212      9211      9214
      9213      9211      9214      9215      9218      9219      9215      9218      9220
      9215      9218      9221      9216      9215      9217      9216      9215      9218
      9217      9215      9218      9218      9221      9222      9218      9221      9223
      9218      9221      9224      9219      9218      9220      9219      9218      9221
      9220      9218      9221      9221      9224      9225      9221      9224      9226
      9221      9224      9230      9222      9221      9223      9222      9221      9224
      9223      9221      9224      9224      9226      9227      9224      9226      9228
      9224      9226      9229      9224      9230      9231      9224      9230      9232
      9224      9230      9233      9225      9224      9226      9225      9224      9230
      9226      9224      9230      9227      9226      9228      9227      9226      9229
      9228      9226      9229      9231      9230      9232      9231      9230      9233
      9232      9230      9233      9234      9236      9237      9234      9238      9239
      9234      9238      9240      9234      9238      9241      9234      9280      9277
      9234      9280      9281      9234      9280      9282      9235      9234      9236
      9235      9234      9238      9235      9234      9280      9236      9234      9238
      9236      9234      9280      9238      9234      9280      9238      9241      9242
      9238      9241      9272      9239      9238      9240      9239      9238      9241
      9240      9238      9241      9241      9242      9243      9241      9242      9244
      9241      9272      9270      9241      9272      9273      9241      9272      9277
      9242      9241      9272      9242      9244      9245      9242      9244      9246
      9242      9244      9247      9243      9242      9244      9244      9247      9248
      9244      9247      9249      9244      9247      9270      9245      9244      9246
      9245      9244      9247      9246      9244      9247      9247      9249      9250
      9247      9249      9251      9247      9249      9259      9247      9270      9267
      9247      9270      9271      9247      9270      9272      9248      9247      9249
      9248      9247      9270      9249      9247      9270      9249      9251      9252
      9249      9251      9253      9249      9251      9254      9249      9259      9257
      9249      9259      9260      9249      9259      9264      9250      9249      9251
      9250      9249      9259      9251      9249      9259      9251      9254      9255
      9251      9254      9256      9251      9254      9257      9252      9251      9253
      9252      9251      9254      9253      9251      9254      9254      9257      9258
      9254      9257      9259      9254      9257      9283      9255      9254      9256
      9255      9254      9257      9256      9254      9257      9257      9259      9260
      9257      9259      9264      9257      9283      9284      9257      9283      9285
      9257      9283      9289      9258      9257      9259      9258      9257      9283
      9259      9257      9283      9259      9260      9261      9259      9260      9262
      9259      9260      9263      9259      9264      9265      9259      9264      9266
      9259      9264      9267      9260      9259      9264      9261      9260      9262
      9261      9260      9263      9262      9260      9263      9264      9267      9268
      9264      9267      9269      9264      9267      9270      9265      9264      9266
      9265      9264      9267      9266      9264      9267      9267      9270      9271
      9267      9270      9272      9268      9267      9269      9268      9267      9270
      9269      9267      9270      9270      9272      9273      9270      9272      9277
      9271      9270      9272      9272      9273      9274      9272      9273      9275
      9272      9273      9276      9272      9277      9278      9272      9277      9279
      9272      9277      9280      9273      9272      9277      9274      9273      9275
      9274      9273      9276      9275      9273      9276      9277      9280      9281
      9277      9280      9282      9278      9277      9279      9278      9277      9280
      9279      9277      9280      9281      9280      9282      9283      9285      9286
      9283      9285      9287      9283      9285      9288      9283      9289      9290
      9283      9289      9291      9283      9289      9292      9284      9283      9285
      9284      9283      9289      9285      9283      9289      9286      9285      9287
      9286      9285      9288      9287      9285      9288      9289      9292      9293
      9289      9292      9294      9289      9292      9295      9290      9289      9291
      9290      9289      9292      9291      9289      9292      9292      9295      9296
      9292      9295      9297      9292      9295      9298      9293      9292      9294
      9293      9292      9295      9294      9292      9295      9295      9298      9299
      9295      9298      9300      9295      9298      9304      9296      9295      9297
      9296      9295      9298      9297      9295      9298      9298      9300      9301
      9298      9300      9302      9298      9300      9303      9298      9304      9305
      9298      9304      9306      9298      9304      9307      9299      9298      9300
      9299      9298      9304      9300      9298      9304      9301      9300      9302
      9301      9300      9303      9302      9300      9303      9305      9304      9306
      9305      9304      9307      9306      9304      9307      9308      9310      9311
      9308      9312      9313      9308      9312      9314      9308      9312      9316
      9308      9328      9324      9308      9328      9329      9308      9328      9333
      9309      9308      9310      9309      9308      9312      9309      9308      9328
      9310      9308      9312      9310      9308      9328      9312      9308      9328
      9312      9314      9315      9312      9316      9317      9312      9316      9318
      9312      9316      9320      9313      9312      9314      9313      9312      9316
      9314      9312      9316      9316      9318      9319      9316      9320      9321
      9316      9320      9322      9316      9320      9324      9317      9316      9318
      9317      9316      9320      9318      9316      9320      9320      9322      9323
      9320      9324      9325      9320      9324      9326      9320      9324      9328
      9321      9320      9322      9321      9320      9324      9322      9320      9324
      9324      9326      9327      9324      9328      9329      9324      9328      9333
      9325      9324      9326      9325      9324      9328      9326      9324      9328
      9328      9333      9330      9329      9328      9333      9330      9334      9335
      9331      9330      9332      9331      9330      9333      9331      9330      9334
      9332      9330      9333      9332      9330      9334      9333      9330      9334
      9334      9335      9336      9334      9335      9337      9334      9335      9338
      9335      9338      9339      9335      9338      9340      9335      9338      9346
      9336      9335      9337      9336      9335      9338      9337      9335      9338
      9338      9340      9341      9338      9346      9347      9338      9346      9348
      9338      9346      9349      9339      9338      9340      9339      9338      9346
      9340      9338      9346      9340      9341      9342      9340      9341      9343
      9341      9343      9344      9341      9343      9345      9341      9343      9355
      9342      9341      9343      9343      9355      9356      9343      9355      9357
      9343      9355      9358      9344      9343      9345      9344      9343      9355
      9345      9343      9355      9346      9349      9350      9347      9346      9348
      9347      9346      9349      9348      9346      9349      9349      9350      9351
      9349      9350      9352      9350      9352      9353      9350      9352      9354
      9350      9352      9402      9351      9350      9352      9352      9402      9403
      9352      9402      9404      9352      9402      9405      9353      9352      9354
      9353      9352      9402      9354      9352      9402      9355      9358      9359
      9355      9358      9360      9355      9358      9361      9356      9355      9357
      9356      9355      9358      9357      9355      9358      9358      9361      9362
      9358      9361      9363      9359      9358      9360      9359      9358      9361
      9360      9358      9361      9361      9363      9364      9361      9363      9365
      9362      9361      9363      9363      9365      9366      9363      9365      9367
      9363      9365      9368      9364      9363      9365      9365      9368      9369
      9365      9368      9370      9366      9365      9367      9366      9365      9368
      9367      9365      9368      9368      9370      9371      9368      9370      9372
      9369      9368      9370      9370      9372      9373      9370      9372      9374
      9370      9372      9375      9371      9370      9372      9372      9375      9376
      9372      9375      9377      9373      9372      9374      9373      9372      9375
      9374      9372      9375      9375      9377      9378      9375      9377      9379
      9376      9375      9377      9377      9379      9380      9377      9379      9381
      9377      9379      9382      9378      9377      9379      9379      9382      9383
      9379      9382      9384      9380      9379      9381      9380      9379      9382
      9381      9379      9382      9382      9384      9385      9382      9384      9386
      9383      9382      9384      9384      9386      9387      9384      9386      9388
      9384      9386      9389      9385      9384      9386      9386      9389      9390
      9386      9389      9391      9386      9389      9392      9387      9386      9388
      9387      9386      9389      9388      9386      9389      9389      9392      9393
      9389      9392      9394      9389      9392      9395      9390      9389      9391
      9390      9389      9392      9391      9389      9392      9392      9395      9396
      9392      9395      9397      9392      9395      9398      9393      9392      9394
      9393      9392      9395      9394      9392      9395      9395      9398      9399
      9395      9398      9400      9395      9398      9401      9396      9395      9397
      9396      9395      9398      9397      9395      9398      9399      9398      9400
      9399      9398      9401      9400      9398      9401      9402      9405      9406
      9402      9405      9407      9402      9405      9408      9403      9402      9404
      9403      9402      9405      9404      9402      9405      9405      9408      9409
      9405      9408      9410      9405      9408      9411      9406      9405      9407
      9406      9405      9408      9407      9405      9408      9408      9411      9412
      9408      9411      9413      9408      9411      9414      9409      9408      9410
      9409      9408      9411      9410      9408      9411      9411      9414      9415
      9411      9414      9416      9411      9414      9417      9412      9411      9413
      9412      9411      9414      9413      9411      9414      9414      9417      9418
      9414      9417      9419      9414      9417      9420      9415      9414      9416
      9415      9414      9417      9416      9414      9417      9417      9420      9421
      9417      9420      9422      9417      9420      9423      9418      9417      9419
      9418      9417      9420      9419      9417      9420      9420      9423      9424
      9420      9423      9425      9420      9423      9426      9421      9420      9422
      9421      9420      9423      9422      9420      9423      9423      9426      9427
      9423      9426      9428      9423      9426      9429      9424      9423      9425
      9424      9423      9426      9425      9423      9426      9426      9429      9430
      9426      9429      9431      9426      9429      9432      9427      9426      9428
      9427      9426      9429      9428      9426      9429      9429      9432      9433
      9429      9432      9434      9429      9432      9435      9430      9429      9431
      9430      9429      9432      9431      9429      9432      9432      9435      9436
      9432      9435      9437      9432      9435      9438      9433      9432      9434
      9433      9432      9435      9434      9432      9435      9435      9438      9439
      9435      9438      9440      9435      9438      9441      9436      9435      9437
      9436      9435      9438      9437      9435      9438      9438      9441      9442
      9438      9441      9443      9438      9441      9444      9439      9438      9440
      9439      9438      9441      9440      9438      9441      9441      9444      9445
      9441      9444      9446      9441      9444      9447      9442      9441      9443
      9442      9441      9444      9443      9441      9444      9444      9447      9448
      9444      9447      9449      9444      9447      9450      9445      9444      9446
      9445      9444      9447      9446      9444      9447      9448      9447      9449
      9448      9447      9450      9449      9447      9450      9451      9453      9454
      9451      9455      9456      9451      9455      9457      9451      9455      9458
      9451      9497      9494      9451      9497      9498      9451      9497      9499
      9452      9451      9453      9452      9451      9455      9452      9451      9497
      9453      9451      9455      9453      9451      9497      9455      9451      9497
      9455      9458      9459      9455      9458      9489      9456      9455      9457
      9456      9455      9458      9457      9455      9458      9458      9459      9460
      9458      9459      9461      9458      9489      9487      9458      9489      9490
      9458      9489      9494      9459      9458      9489      9459      9461      9462
      9459      9461      9463      9459      9461      9464      9460      9459      9461
      9461      9464      9465      9461      9464      9466      9461      9464      9487
      9462      9461      9463      9462      9461      9464      9463      9461      9464
      9464      9466      9467      9464      9466      9468      9464      9466      9476
      9464      9487      9484      9464      9487      9488      9464      9487      9489
      9465      9464      9466      9465      9464      9487      9466      9464      9487
      9466      9468      9469      9466      9468      9470      9466      9468      9471
      9466      9476      9474      9466      9476      9477      9466      9476      9481
      9467      9466      9468      9467      9466      9476      9468      9466      9476
      9468      9471      9472      9468      9471      9473      9468      9471      9474
      9469      9468      9470      9469      9468      9471      9470      9468      9471
      9471      9474      9475      9471      9474      9476      9471      9474      9500
      9472      9471      9473      9472      9471      9474      9473      9471      9474
      9474      9476      9477      9474      9476      9481      9474      9500      9501
      9474      9500      9502      9474      9500      9506      9475      9474      9476
      9475      9474      9500      9476      9474      9500      9476      9477      9478
      9476      9477      9479      9476      9477      9480      9476      9481      9482
      9476      9481      9483      9476      9481      9484      9477      9476      9481
      9478      9477      9479      9478      9477      9480      9479      9477      9480
      9481      9484      9485      9481      9484      9486      9481      9484      9487
      9482      9481      9483      9482      9481      9484      9483      9481      9484
      9484      9487      9488      9484      9487      9489      9485      9484      9486
      9485      9484      9487      9486      9484      9487      9487      9489      9490
      9487      9489      9494      9488      9487      9489      9489      9490      9491
      9489      9490      9492      9489      9490      9493      9489      9494      9495
      9489      9494      9496      9489      9494      9497      9490      9489      9494
      9491      9490      9492      9491      9490      9493      9492      9490      9493
      9494      9497      9498      9494      9497      9499      9495      9494      9496
      9495      9494      9497      9496      9494      9497      9498      9497      9499
      9500      9502      9503      9500      9502      9504      9500      9502      9505
      9500      9506      9507      9500      9506      9508      9500      9506      9509
      9501      9500      9502      9501      9500      9506      9502      9500      9506
      9503      9502      9504      9503      9502      9505      9504      9502      9505
      9506      9509      9510      9506      9509      9511      9506      9509      9512
      9507      9506      9508      9507      9506      9509      9508      9506      9509
      9509      9512      9513      9509      9512      9514      9509      9512      9515
      9510      9509      9511      9510      9509      9512      9511      9509      9512
      9512      9515      9516      9512      9515      9517      9512      9515      9521
      9513      9512      9514      9513      9512      9515      9514      9512      9515
      9515      9517      9518      9515      9517      9519      9515      9517      9520
      9515      9521      9522      9515      9521      9523      9515      9521      9524
      9516      9515      9517      9516      9515      9521      9517      9515      9521
      9518      9517      9519      9518      9517      9520      9519      9517      9520
      9522      9521      9523      9522      9521      9524      9523      9521      9524
      9525      9529      9530      9525      9529      9531      9525      9529      9532
      9526      9525      9527      9526      9525      9528      9526      9525      9529
      9527      9525      9528      9527      9525      9529      9528      9525      9529
      9529      9532      9533      9529      9532      9534      9529      9532      9538
      9530      9529      9531      9530      9529      9532      9531      9529      9532
      9532      9538      9535      9533      9532      9534      9533      9532      9538
      9534      9532      9538      9535      9539      9540      9536      9535      9537
      9536      9535      9538      9536      9535      9539      9537      9535      9538
      9537      9535      9539      9538      9535      9539      9539      9540      9541
      9539      9540      9542      9539      9540      9543      9540      9543      9544
      9540      9543      9545      9540      9543      9551      9541      9540      9542
      9541      9540      9543      9542      9540      9543      9543      9545      9546
      9543      9551      9552      9543      9551      9553      9543      9551      9554
      9544      9543      9545      9544      9543      9551      9545      9543      9551
      9545      9546      9547      9545      9546      9548      9546      9548      9549
      9546      9548      9550      9546      9548      9560      9547      9546      9548
      9548      9560      9561      9548      9560      9562      9548      9560      9563
      9549      9548      9550      9549      9548      9560      9550      9548      9560
      9551      9554      9555      9552      9551      9553      9552      9551      9554
      9553      9551      9554      9554      9555      9556      9554      9555      9557
      9555      9557      9558      9555      9557      9559      9555      9557      9607
      9556      9555      9557      9557      9607      9608      9557      9607      9609
      9557      9607      9610      9558      9557      9559      9558      9557      9607
      9559      9557      9607      9560      9563      9564      9560      9563      9565
      9560      9563      9566      9561      9560      9562      9561      9560      9563
      9562      9560      9563      9563      9566      9567      9563      9566      9568
      9563      9566      9569      9564      9563      9565      9564      9563      9566
      9565      9563      9566      9566      9569      9570      9566      9569      9571
      9566      9569      9572      9567      9566      9568      9567      9566      9569
      9568      9566      9569      9569      9572      9573      9569      9572      9574
      9569      9572      9575      9570      9569      9571      9570      9569      9572
      9571      9569      9572      9572      9575      9576      9572      9575      9577
      9572      9575      9578      9573      9572      9574      9573      9572      9575
      9574      9572      9575      9575      9578      9579      9575      9578      9580
      9576      9575      9577      9576      9575      9578      9577      9575      9578
      9578      9580      9581      9578      9580      9582      9579      9578      9580
      9580      9582      9583      9580      9582      9584      9580      9582      9585
      9581      9580      9582      9582      9585      9586      9582      9585      9587
      9582      9585      9588      9583      9582      9584      9583      9582      9585
      9584      9582      9585      9585      9588      9589      9585      9588      9590
      9585      9588      9591      9586      9585      9587      9586      9585      9588
      9587      9585      9588      9588      9591      9592      9588      9591      9593
      9588      9591      9594      9589      9588      9590      9589      9588      9591
      9590      9588      9591      9591      9594      9595      9591      9594      9596
      9591      9594      9597      9592      9591      9593      9592      9591      9594
      9593      9591      9594      9594      9597      9598      9594      9597      9599
      9594      9597      9600      9595      9594      9596      9595      9594      9597
      9596      9594      9597      9597      9600      9601      9597      9600      9602
      9597      9600      9603      9598      9597      9599      9598      9597      9600
      9599      9597      9600      9600      9603      9604      9600      9603      9605
      9600      9603      9606      9601      9600      9602      9601      9600      9603
      9602      9600      9603      9604      9603      9605      9604      9603      9606
      9605      9603      9606      9607      9610      9611      9607      9610      9612
      9607      9610      9613      9608      9607      9609      9608      9607      9610
      9609      9607      9610      9610      9613      9614      9610      9613      9615
      9610      9613      9616      9611      9610      9612      9611      9610      9613
      9612      9610      9613      9613      9616      9617      9613      9616      9618
      9613      9616      9619      9614      9613      9615      9614      9613      9616
      9615      9613      9616      9616      9619      9620      9616      9619      9621
      9616      9619      9622      9617      9616      9618      9617      9616      9619
      9618      9616      9619      9619      9622      9623      9619      9622      9624
      9619      9622      9625      9620      9619      9621      9620      9619      9622
      9621      9619      9622      9622      9625      9626      9622      9625      9627
      9622      9625      9628      9623      9622      9624      9623      9622      9625
      9624      9622      9625      9625      9628      9629      9625      9628      9630
      9625      9628      9631      9626      9625      9627      9626      9625      9628
      9627      9625      9628      9628      9631      9632      9628      9631      9633
      9628      9631      9634      9629      9628      9630      9629      9628      9631
      9630      9628      9631      9631      9634      9635      9631      9634      9636
      9631      9634      9637      9632      9631      9633      9632      9631      9634
      9633      9631      9634      9634      9637      9638      9634      9637      9639
      9634      9637      9640      9635      9634      9636      9635      9634      9637
      9636      9634      9637      9637      9640      9641      9637      9640      9642
      9637      9640      9643      9638      9637      9639      9638      9637      9640
      9639      9637      9640      9640      9643      9644      9640      9643      9645
      9640      9643      9646      9641      9640      9642      9641      9640      9643
      9642      9640      9643      9643      9646      9647      9643      9646      9648
      9643      9646      9649      9644      9643      9645      9644      9643      9646
      9645      9643      9646      9646      9649      9650      9646      9649      9651
      9646      9649      9652      9647      9646      9648      9647      9646      9649
      9648      9646      9649      9649      9652      9653      9649      9652      9654
      9649      9652      9655      9650      9649      9651      9650      9649      9652
      9651      9649      9652      9653      9652      9654      9653      9652      9655
      9654      9652      9655      9656      9657      9658      9656      9657      9659
      9656      9657      9660      9656      9661      9662      9656      9661      9663
      9656      9661      9664      9656      9665      9666      9656      9665      9667
      9656      9665      9668      9656      9669      9670      9656      9669      9671
      9656      9669      9672      9657      9656      9661      9657      9656      9665
      9657      9656      9669      9658      9657      9659      9658      9657      9660
      9659      9657      9660      9661      9656      9665      9661      9656      9669
      9662      9661      9663      9662      9661      9664      9663      9661      9664
      9665      9656      9669      9666      9665      9667      9666      9665      9668
      9667      9665      9668      9669      9672      9673      9669      9672      9674
      9669      9672      9679      9670      9669      9671      9670      9669      9672
      9671      9669      9672      9672      9679      9675      9673      9672      9674
      9673      9672      9679      9674      9672      9679      9675      9678      9680
      9676      9675      9677      9676      9675      9678      9676      9675      9679
      9677      9675      9678      9677      9675      9679      9678      9675      9679
      9678      9680      9681      9678      9680      9682      9678      9680      9685
      9680      9685      9683      9680      9685      9686      9680      9685      9687
      9681      9680      9682      9681      9680      9685      9682      9680      9685
      9683      9685      9686      9683      9685      9687      9683      9735      9736
      9683      9735      9737      9684      9683      9685      9684      9683      9735
      9685      9683      9735      9685      9687      9688      9685      9687      9689
      9685      9687      9691      9686      9685      9687      9687      9689      9690
      9687      9691      9692      9687      9691      9693      9688      9687      9689
      9688      9687      9691      9689      9687      9691      9691      9693      9694
      9691      9693      9695      9692      9691      9693      9693      9695      9696
      9693      9695      9697      9693      9695      9698      9694      9693      9695
      9695      9698      9699      9695      9698      9700      9695      9698      9701
      9696      9695      9697      9696      9695      9698      9697      9695      9698
      9698      9701      9702      9698      9701      9703      9698      9701      9704
      9699      9698      9700      9699      9698      9701      9700      9698      9701
      9701      9704      9705      9701      9704      9706      9701      9704      9707
      9702      9701      9703      9702      9701      9704      9703      9701      9704
      9704      9707      9708      9704      9707      9709      9704      9707      9710
      9705      9704      9706      9705      9704      9707      9706      9704      9707
      9707      9710      9711      9707      9710      9712      9707      9710      9713
      9708      9707      9709      9708      9707      9710      9709      9707      9710
      9710      9713      9714      9710      9713      9715      9710      9713      9716
      9711      9710      9712      9711      9710      9713      9712      9710      9713
      9713      9716      9717      9713      9716      9718      9713      9716      9719
      9714      9713      9715      9714      9713      9716      9715      9713      9716
      9716      9719      9720      9716      9719      9721      9716      9719      9722
      9717      9716      9718      9717      9716      9719      9718      9716      9719
      9719      9722      9723      9719      9722      9724      9719      9722      9725
      9720      9719      9721      9720      9719      9722      9721      9719      9722
      9722      9725      9726      9722      9725      9727      9722      9725      9728
      9723      9722      9724      9723      9722      9725      9724      9722      9725
      9725      9728      9729      9725      9728      9730      9725      9728      9731
      9726      9725      9727      9726      9725      9728      9727      9725      9728
      9728      9731      9732      9728      9731      9733      9728      9731      9734
      9729      9728      9730      9729      9728      9731      9730      9728      9731
      9732      9731      9733      9732      9731      9734      9733      9731      9734
      9735      9737      9738      9735      9737      9739      9735      9737      9740
      9736      9735      9737      9737      9740      9741      9737      9740      9742
      9737      9740      9743      9738      9737      9739      9738      9737      9740
      9739      9737      9740      9740      9743      9744      9740      9743      9745
      9740      9743      9746      9741      9740      9742      9741      9740      9743
      9742      9740      9743      9743      9746      9747      9743      9746      9748
      9743      9746      9749      9744      9743      9745      9744      9743      9746
      9745      9743      9746      9746      9749      9750      9746      9749      9751
      9746      9749      9752      9747      9746      9748      9747      9746      9749
      9748      9746      9749      9749      9752      9753      9749      9752      9754
      9749      9752      9755      9750      9749      9751      9750      9749      9752
      9751      9749      9752      9752      9755      9756      9752      9755      9757
      9752      9755      9758      9753      9752      9754      9753      9752      9755
      9754      9752      9755      9755      9758      9759      9755      9758      9760
      9756      9755      9757      9756      9755      9758      9757      9755      9758
      9758      9760      9761      9758      9760      9762      9759      9758      9760
      9760      9762      9763      9760      9762      9764      9760      9762      9765
      9761      9760      9762      9762      9765      9766      9762      9765      9767
      9762      9765      9768      9763      9762      9764      9763      9762      9765
      9764      9762      9765      9765      9768      9769      9765      9768      9770
      9765      9768      9771      9766      9765      9767      9766      9765      9768
      9767      9765      9768      9768      9771      9772      9768      9771      9773
      9768      9771      9774      9769      9768      9770      9769      9768      9771
      9770      9768      9771      9771      9774      9775      9771      9774      9776
      9771      9774      9777      9772      9771      9773      9772      9771      9774
      9773      9771      9774      9774      9777      9778      9774      9777      9779
      9774      9777      9780      9775      9774      9776      9775      9774      9777
      9776      9774      9777      9777      9780      9781      9777      9780      9782
      9777      9780      9783      9778      9777      9779      9778      9777      9780
      9779      9777      9780      9780      9783      9784      9780      9783      9785
      9780      9783      9786      9781      9780      9782      9781      9780      9783
      9782      9780      9783      9784      9783      9785      9784      9783      9786
      9785      9783      9786      9787      9791      9792      9787      9791      9793
      9787      9791      9796      9788      9787      9789      9788      9787      9790
      9788      9787      9791      9789      9787      9790      9789      9787      9791
      9790      9787      9791      9791      9793      9794      9791      9793      9795
      9791      9796      9797      9791      9796      9798      9791      9796      9802
      9792      9791      9793      9792      9791      9796      9793      9791      9796
      9794      9793      9795      9796      9802      9799      9797      9796      9798
      9797      9796      9802      9798      9796      9802      9799      9803      9804
      9800      9799      9801      9800      9799      9802      9800      9799      9803
      9801      9799      9802      9801      9799      9803      9802      9799      9803
      9803      9804      9805      9803      9804      9806      9803      9804      9807
      9804      9807      9808      9804      9807      9809      9804      9807      9815
      9805      9804      9806      9805      9804      9807      9806      9804      9807
      9807      9809      9810      9807      9815      9816      9807      9815      9817
      9807      9815      9818      9808      9807      9809      9808      9807      9815
      9809      9807      9815      9809      9810      9811      9809      9810      9812
      9810      9812      9813      9810      9812      9814      9810      9812      9824
      9811      9810      9812      9812      9824      9825      9812      9824      9826
      9812      9824      9827      9813      9812      9814      9813      9812      9824
      9814      9812      9824      9815      9818      9819      9816      9815      9817
      9816      9815      9818      9817      9815      9818      9818      9819      9820
      9818      9819      9821      9819      9821      9822      9819      9821      9823
      9819      9821      9871      9820      9819      9821      9821      9871      9872
      9821      9871      9873      9821      9871      9874      9822      9821      9823
      9822      9821      9871      9823      9821      9871      9824      9827      9828
      9824      9827      9829      9824      9827      9830      9825      9824      9826
      9825      9824      9827      9826      9824      9827      9827      9830      9831
      9827      9830      9832      9828      9827      9829      9828      9827      9830
      9829      9827      9830      9830      9832      9833      9830      9832      9834
      9831      9830      9832      9832      9834      9835      9832      9834      9836
      9832      9834      9837      9833      9832      9834      9834      9837      9838
      9834      9837      9839      9835      9834      9836      9835      9834      9837
      9836      9834      9837      9837      9839      9840      9837      9839      9841
      9838      9837      9839      9839      9841      9842      9839      9841      9843
      9839      9841      9844      9840      9839      9841      9841      9844      9845
      9841      9844      9846      9842      9841      9843      9842      9841      9844
      9843      9841      9844      9844      9846      9847      9844      9846      9848
      9845      9844      9846      9846      9848      9849      9846      9848      9850
      9846      9848      9851      9847      9846      9848      9848      9851      9852
      9848      9851      9853      9849      9848      9850      9849      9848      9851
      9850      9848      9851      9851      9853      9854      9851      9853      9855
      9852      9851      9853      9853      9855      9856      9853      9855      9857
      9853      9855      9858      9854      9853      9855      9855      9858      9859
      9855      9858      9860      9855      9858      9861      9856      9855      9857
      9856      9855      9858      9857      9855      9858      9858      9861      9862
      9858      9861      9863      9858      9861      9864      9859      9858      9860
      9859      9858      9861      9860      9858      9861      9861      9864      9865
      9861      9864      9866      9861      9864      9867      9862      9861      9863
      9862      9861      9864      9863      9861      9864      9864      9867      9868
      9864      9867      9869      9864      9867      9870      9865      9864      9866
      9865      9864      9867      9866      9864      9867      9868      9867      9869
      9868      9867      9870      9869      9867      9870      9871      9874      9875
      9871      9874      9876      9871      9874      9877      9872      9871      9873
      9872      9871      9874      9873      9871      9874      9874      9877      9878
      9874      9877      9879      9874      9877      9880      9875      9874      9876
      9875      9874      9877      9876      9874      9877      9877      9880      9881
      9877      9880      9882      9877      9880      9883      9878      9877      9879
      9878      9877      9880      9879      9877      9880      9880      9883      9884
      9880      9883      9885      9880      9883      9886      9881      9880      9882
      9881      9880      9883      9882      9880      9883      9883      9886      9887
      9883      9886      9888      9883      9886      9889      9884      9883      9885
      9884      9883      9886      9885      9883      9886      9886      9889      9890
      9886      9889      9891      9886      9889      9892      9887      9886      9888
      9887      9886      9889      9888      9886      9889      9889      9892      9893
      9889      9892      9894      9889      9892      9895      9890      9889      9891
      9890      9889      9892      9891      9889      9892      9892      9895      9896
      9892      9895      9897      9892      9895      9898      9893      9892      9894
      9893      9892      9895      9894      9892      9895      9895      9898      9899
      9895      9898      9900      9895      9898      9901      9896      9895      9897
      9896      9895      9898      9897      9895      9898      9898      9901      9902
      9898      9901      9903      9898      9901      9904      9899      9898      9900
      9899      9898      9901      9900      9898      9901      9901      9904      9905
      9901      9904      9906      9901      9904      9907      9902      9901      9903
      9902      9901      9904      9903      9901      9904      9904      9907      9908
      9904      9907      9909      9904      9907      9910      9905      9904      9906
      9905      9904      9907      9906      9904      9907      9907      9910      9911
      9907      9910      9912      9907      9910      9913      9908      9907      9909
      9908      9907      9910      9909      9907      9910      9910      9913      9914
      9910      9913      9915      9910      9913      9916      9911      9910      9912
      9911      9910      9913      9912      9910      9913      9913      9916      9917
      9913      9916      9918      9913      9916      9919      9914      9913      9915
      9914      9913      9916      9915      9913      9916      9917      9916      9918
      9917      9916      9919      9918      9916      9919      9920      9922      9923
      9920      9924      9925      9920      9924      9926      9920      9924      9927
      9920      9966      9963      9920      9966      9967      9920      9966      9968
      9921      9920      9922      9921      9920      9924      9921      9920      9966
      9922      9920      9924      9922      9920      9966      9924      9920      9966
      9924      9927      9928      9924      9927      9958      9925      9924      9926
      9925      9924      9927      9926      9924      9927      9927      9928      9929
      9927      9928      9930      9927      9958      9956      9927      9958      9959
      9927      9958      9963      9928      9927      9958      9928      9930      9931
      9928      9930      9932      9928      9930      9933      9929      9928      9930
      9930      9933      9934      9930      9933      9935      9930      9933      9956
      9931      9930      9932      9931      9930      9933      9932      9930      9933
      9933      9935      9936      9933      9935      9937      9933      9935      9945
      9933      9956      9953      9933      9956      9957      9933      9956      9958
      9934      9933      9935      9934      9933      9956      9935      9933      9956
      9935      9937      9938      9935      9937      9939      9935      9937      9940
      9935      9945      9943      9935      9945      9946      9935      9945      9950
      9936      9935      9937      9936      9935      9945      9937      9935      9945
      9937      9940      9941      9937      9940      9942      9937      9940      9943
      9938      9937      9939      9938      9937      9940      9939      9937      9940
      9940      9943      9944      9940      9943      9945      9940      9943      9969
      9941      9940      9942      9941      9940      9943      9942      9940      9943
      9943      9945      9946      9943      9945      9950      9943      9969      9970
      9943      9969      9971      9943      9969      9975      9944      9943      9945
      9944      9943      9969      9945      9943      9969      9945      9946      9947
      9945      9946      9948      9945      9946      9949      9945      9950      9951
      9945      9950      9952      9945      9950      9953      9946      9945      9950
      9947      9946      9948      9947      9946      9949      9948      9946      9949
      9950      9953      9954      9950      9953      9955      9950      9953      9956
      9951      9950      9952      9951      9950      9953      9952      9950      9953
      9953      9956      9957      9953      9956      9958      9954      9953      9955
      9954      9953      9956      9955      9953      9956      9956      9958      9959
      9956      9958      9963      9957      9956      9958      9958      9959      9960
      9958      9959      9961      9958      9959      9962      9958      9963      9964
      9958      9963      9965      9958      9963      9966      9959      9958      9963
      9960      9959      9961      9960      9959      9962      9961      9959      9962
      9963      9966      9967      9963      9966      9968      9964      9963      9965
      9964      9963      9966      9965      9963      9966      9967      9966      9968
      9969      9971      9972      9969      9971      9973      9969      9971      9974
      9969      9975      9976      9969      9975      9977      9969      9975      9978
      9970      9969      9971      9970      9969      9975      9971      9969      9975
      9972      9971      9973      9972      9971      9974      9973      9971      9974
      9975      9978      9979      9975      9978      9980      9975      9978      9981
      9976      9975      9977      9976      9975      9978      9977      9975      9978
      9978      9981      9982      9978      9981      9983      9978      9981      9984
      9979      9978      9980      9979      9978      9981      9980      9978      9981
      9981      9984      9985      9981      9984      9986      9981      9984      9990
      9982      9981      9983      9982      9981      9984      9983      9981      9984
      9984      9986      9987      9984      9986      9988      9984      9986      9989
      9984      9990      9991      9984      9990      9992      9984      9990      9993
      9985      9984      9986      9985      9984      9990      9986      9984      9990
      9987      9986      9988      9987      9986      9989      9988      9986      9989
      9991      9990      9992      9991      9990      9993      9992      9990      9993
      9994      9998      9999      9994      9998     10000      9994      9998     10001
      9995      9994      9996      9995      9994      9997      9995      9994      9998
      9996      9994      9997      9996      9994      9998      9997      9994      9998
      9998     10001     10002      9998     10001     10003      9998     10001     10007
      9999      9998     10000      9999      9998     10001     10000      9998     10001
     10001     10007     10004     10002     10001     10003     10002     10001     10007
     10003     10001     10007     10004     10008     10009     10005     10004     10006
     10005     10004     10007     10005     10004     10008     10006     10004     10007
     10006     10004     10008     10007     10004     10008     10008     10009     10010
     10008     10009     10011     10008     10009     10012     10009     10012     10013
     10009     10012     10014     10009     10012     10020     10010     10009     10011
     10010     10009     10012     10011     10009     10012     10012     10014     10015
     10012     10020     10021     10012     10020     10022     10012     10020     10023
     10013     10012     10014     10013     10012     10020     10014     10012     10020
     10014     10015     10016     10014     10015     10017     10015     10017     10018
     10015     10017     10019     10015     10017     10029     10016     10015     10017
     10017     10029     10030     10017     10029     10031     10017     10029     10032
     10018     10017     10019     10018     10017     10029     10019     10017     10029
     10020     10023     10024     10021     10020     10022     10021     10020     10023
     10022     10020     10023     10023     10024     10025     10023     10024     10026
     10024     10026     10027     10024     10026     10028     10024     10026     10076
     10025     10024     10026     10026     10076     10077     10026     10076     10078
     10026     10076     10079     10027     10026     10028     10027     10026     10076
     10028     10026     10076     10029     10032     10033     10029     10032     10034
     10029     10032     10035     10030     10029     10031     10030     10029     10032
     10031     10029     10032     10032     10035     10036     10032     10035     10037
     10033     10032     10034     10033     10032     10035     10034     10032     10035
     10035     10037     10038     10035     10037     10039     10036     10035     10037
     10037     10039     10040     10037     10039     10041     10037     10039     10042
     10038     10037     10039     10039     10042     10043     10039     10042     10044
     10040     10039     10041     10040     10039     10042     10041     10039     10042
     10042     10044     10045     10042     10044     10046     10043     10042     10044
     10044     10046     10047     10044     10046     10048     10044     10046     10049
     10045     10044     10046     10046     10049     10050     10046     10049     10051
     10047     10046     10048     10047     10046     10049     10048     10046     10049
     10049     10051     10052     10049     10051     10053     10050     10049     10051
     10051     10053     10054     10051     10053     10055     10051     10053     10056
     10052     10051     10053     10053     10056     10057     10053     10056     10058
     10054     10053     10055     10054     10053     10056     10055     10053     10056
     10056     10058     10059     10056     10058     10060     10057     10056     10058
     10058     10060     10061     10058     10060     10062     10058     10060     10063
     10059     10058     10060     10060     10063     10064     10060     10063     10065
     10060     10063     10066     10061     10060     10062     10061     10060     10063
     10062     10060     10063     10063     10066     10067     10063     10066     10068
     10063     10066     10069     10064     10063     10065     10064     10063     10066
     10065     10063     10066     10066     10069     10070     10066     10069     10071
     10066     10069     10072     10067     10066     10068     10067     10066     10069
     10068     10066     10069     10069     10072     10073     10069     10072     10074
     10069     10072     10075     10070     10069     10071     10070     10069     10072
     10071     10069     10072     10073     10072     10074     10073     10072     10075
     10074     10072     10075     10076     10079     10080     10076     10079     10081
     10076     10079     10082     10077     10076     10078     10077     10076     10079
     10078     10076     10079     10079     10082     10083     10079     10082     10084
     10079     10082     10085     10080     10079     10081     10080     10079     10082
     10081     10079     10082     10082     10085     10086     10082     10085     10087
     10082     10085     10088     10083     10082     10084     10083     10082     10085
     10084     10082     10085     10085     10088     10089     10085     10088     10090
     10085     10088     10091     10086     10085     10087     10086     10085     10088
     10087     10085     10088     10088     10091     10092     10088     10091     10093
     10088     10091     10094     10089     10088     10090     10089     10088     10091
     10090     10088     10091     10091     10094     10095     10091     10094     10096
     10091     10094     10097     10092     10091     10093     10092     10091     10094
     10093     10091     10094     10094     10097     10098     10094     10097     10099
     10094     10097     10100     10095     10094     10096     10095     10094     10097
     10096     10094     10097     10097     10100     10101     10097     10100     10102
     10097     10100     10103     10098     10097     10099     10098     10097     10100
     10099     10097     10100     10100     10103     10104     10100     10103     10105
     10100     10103     10106     10101     10100     10102     10101     10100     10103
     10102     10100     10103     10103     10106     10107     10103     10106     10108
     10103     10106     10109     10104     10103     10105     10104     10103     10106
     10105     10103     10106     10106     10109     10110     10106     10109     10111
     10106     10109     10112     10107     10106     10108     10107     10106     10109
     10108     10106     10109     10109     10112     10113     10109     10112     10114
     10109     10112     10115     10110     10109     10111     10110     10109     10112
     10111     10109     10112     10112     10115     10116     10112     10115     10117
     10112     10115     10118     10113     10112     10114     10113     10112     10115
     10114     10112     10115     10115     10118     10119     10115     10118     10120
     10115     10118     10121     10116     10115     10117     10116     10115     10118
     10117     10115     10118     10118     10121     10122     10118     10121     10123
     10118     10121     10124     10119     10118     10120     10119     10118     10121
     10120     10118     10121     10122     10121     10123     10122     10121     10124
     10123     10121     10124     10125     10127     10128     10125     10129     10130
     10125     10129     10131     10125     10129     10132     10125     10171     10168
     10125     10171     10172     10125     10171     10173     10126     10125     10127
     10126     10125     10129     10126     10125     10171     10127     10125     10129
     10127     10125     10171     10129     10125     10171     10129     10132     10133
     10129     10132     10163     10130     10129     10131     10130     10129     10132
     10131     10129     10132     10132     10133     10134     10132     10133     10135
     10132     10163     10161     10132     10163     10164     10132     10163     10168
     10133     10132     10163     10133     10135     10136     10133     10135     10137
     10133     10135     10138     10134     10133     10135     10135     10138     10139
     10135     10138     10140     10135     10138     10161     10136     10135     10137
     10136     10135     10138     10137     10135     10138     10138     10140     10141
     10138     10140     10142     10138     10140     10150     10138     10161     10158
     10138     10161     10162     10138     10161     10163     10139     10138     10140
     10139     10138     10161     10140     10138     10161     10140     10142     10143
     10140     10142     10144     10140     10142     10145     10140     10150     10148
     10140     10150     10151     10140     10150     10155     10141     10140     10142
     10141     10140     10150     10142     10140     10150     10142     10145     10146
     10142     10145     10147     10142     10145     10148     10143     10142     10144
     10143     10142     10145     10144     10142     10145     10145     10148     10149
     10145     10148     10150     10145     10148     10174     10146     10145     10147
     10146     10145     10148     10147     10145     10148     10148     10150     10151
     10148     10150     10155     10148     10174     10175     10148     10174     10176
     10148     10174     10180     10149     10148     10150     10149     10148     10174
     10150     10148     10174     10150     10151     10152     10150     10151     10153
     10150     10151     10154     10150     10155     10156     10150     10155     10157
     10150     10155     10158     10151     10150     10155     10152     10151     10153
     10152     10151     10154     10153     10151     10154     10155     10158     10159
     10155     10158     10160     10155     10158     10161     10156     10155     10157
     10156     10155     10158     10157     10155     10158     10158     10161     10162
     10158     10161     10163     10159     10158     10160     10159     10158     10161
     10160     10158     10161     10161     10163     10164     10161     10163     10168
     10162     10161     10163     10163     10164     10165     10163     10164     10166
     10163     10164     10167     10163     10168     10169     10163     10168     10170
     10163     10168     10171     10164     10163     10168     10165     10164     10166
     10165     10164     10167     10166     10164     10167     10168     10171     10172
     10168     10171     10173     10169     10168     10170     10169     10168     10171
     10170     10168     10171     10172     10171     10173     10174     10176     10177
     10174     10176     10178     10174     10176     10179     10174     10180     10181
     10174     10180     10182     10174     10180     10183     10175     10174     10176
     10175     10174     10180     10176     10174     10180     10177     10176     10178
     10177     10176     10179     10178     10176     10179     10180     10183     10184
     10180     10183     10185     10180     10183     10186     10181     10180     10182
     10181     10180     10183     10182     10180     10183     10183     10186     10187
     10183     10186     10188     10183     10186     10189     10184     10183     10185
     10184     10183     10186     10185     10183     10186     10186     10189     10190
     10186     10189     10191     10186     10189     10195     10187     10186     10188
     10187     10186     10189     10188     10186     10189     10189     10191     10192
     10189     10191     10193     10189     10191     10194     10189     10195     10196
     10189     10195     10197     10189     10195     10198     10190     10189     10191
     10190     10189     10195     10191     10189     10195     10192     10191     10193
     10192     10191     10194     10193     10191     10194     10196     10195     10197
     10196     10195     10198     10197     10195     10198     10199     10200     10201
     10199     10200     10202     10199     10200     10203     10199     10204     10205
     10199     10204     10206     10199     10204     10207     10199     10208     10209
     10199     10208     10210     10199     10208     10211     10199     10212     10213
     10199     10212     10214     10199     10212     10215     10200     10199     10204
     10200     10199     10208     10200     10199     10212     10201     10200     10202
     10201     10200     10203     10202     10200     10203     10204     10199     10208
     10204     10199     10212     10205     10204     10206     10205     10204     10207
     10206     10204     10207     10208     10199     10212     10209     10208     10210
     10209     10208     10211     10210     10208     10211     10212     10215     10216
     10212     10215     10217     10212     10215     10221     10213     10212     10214
     10213     10212     10215     10214     10212     10215     10215     10221     10218
     10216     10215     10217     10216     10215     10221     10217     10215     10221
     10218     10222     10223     10219     10218     10220     10219     10218     10221
     10219     10218     10222     10220     10218     10221     10220     10218     10222
     10221     10218     10222     10222     10223     10224     10222     10223     10225
     10222     10223     10226     10223     10226     10227     10223     10226     10228
     10223     10226     10234     10224     10223     10225     10224     10223     10226
     10225     10223     10226     10226     10228     10229     10226     10234     10235
     10226     10234     10236     10226     10234     10237     10227     10226     10228
     10227     10226     10234     10228     10226     10234     10228     10229     10230
     10228     10229     10231     10229     10231     10232     10229     10231     10233
     10229     10231     10243     10230     10229     10231     10231     10243     10244
     10231     10243     10245     10231     10243     10246     10232     10231     10233
     10232     10231     10243     10233     10231     10243     10234     10237     10238
     10235     10234     10236     10235     10234     10237     10236     10234     10237
     10237     10238     10239     10237     10238     10240     10238     10240     10241
     10238     10240     10242     10238     10240     10288     10239     10238     10240
     10240     10288     10289     10240     10288     10290     10240     10288     10291
     10241     10240     10242     10241     10240     10288     10242     10240     10288
     10243     10246     10247     10243     10246     10248     10243     10246     10249
     10244     10243     10245     10244     10243     10246     10245     10243     10246
     10246     10249     10250     10246     10249     10251     10246     10249     10252
     10247     10246     10248     10247     10246     10249     10248     10246     10249
     10249     10252     10253     10249     10252     10254     10249     10252     10255
     10250     10249     10251     10250     10249     10252     10251     10249     10252
     10252     10255     10256     10252     10255     10257     10252     10255     10258
     10253     10252     10254     10253     10252     10255     10254     10252     10255
     10255     10258     10259     10255     10258     10260     10255     10258     10261
     10256     10255     10257     10256     10255     10258     10257     10255     10258
     10258     10261     10262     10258     10261     10263     10259     10258     10260
     10259     10258     10261     10260     10258     10261     10261     10263     10264
     10261     10263     10265     10262     10261     10263     10263     10265     10266
     10263     10265     10267     10263     10265     10268     10264     10263     10265
     10265     10268     10269     10265     10268     10270     10266     10265     10267
     10266     10265     10268     10267     10265     10268     10268     10270     10271
     10268     10270     10272     10269     10268     10270     10270     10272     10273
     10270     10272     10274     10270     10272     10275     10271     10270     10272
     10272     10275     10276     10272     10275     10277     10272     10275     10278
     10273     10272     10274     10273     10272     10275     10274     10272     10275
     10275     10278     10279     10275     10278     10280     10275     10278     10281
     10276     10275     10277     10276     10275     10278     10277     10275     10278
     10278     10281     10282     10278     10281     10283     10278     10281     10284
     10279     10278     10280     10279     10278     10281     10280     10278     10281
     10281     10284     10285     10281     10284     10286     10281     10284     10287
     10282     10281     10283     10282     10281     10284     10283     10281     10284
     10285     10284     10286     10285     10284     10287     10286     10284     10287
     10288     10291     10292     10288     10291     10293     10288     10291     10294
     10289     10288     10290     10289     10288     10291     10290     10288     10291
     10291     10294     10295     10291     10294     10296     10291     10294     10297
     10292     10291     10293     10292     10291     10294     10293     10291     10294
     10294     10297     10298     10294     10297     10299     10294     10297     10300
     10295     10294     10296     10295     10294     10297     10296     10294     10297
     10297     10300     10301     10297     10300     10302     10297     10300     10303
     10298     10297     10299     10298     10297     10300     10299     10297     10300
     10300     10303     10304     10300     10303     10305     10300     10303     10306
     10301     10300     10302     10301     10300     10303     10302     10300     10303
     10303     10306     10307     10303     10306     10308     10303     10306     10309
     10304     10303     10305     10304     10303     10306     10305     10303     10306
     10306     10309     10310     10306     10309     10311     10306     10309     10312
     10307     10306     10308     10307     10306     10309     10308     10306     10309
     10309     10312     10313     10309     10312     10314     10309     10312     10315
     10310     10309     10311     10310     10309     10312     10311     10309     10312
     10312     10315     10316     10312     10315     10317     10312     10315     10318
     10313     10312     10314     10313     10312     10315     10314     10312     10315
     10315     10318     10319     10315     10318     10320     10315     10318     10321
     10316     10315     10317     10316     10315     10318     10317     10315     10318
     10318     10321     10322     10318     10321     10323     10318     10321     10324
     10319     10318     10320     10319     10318     10321     10320     10318     10321
     10321     10324     10325     10321     10324     10326     10321     10324     10327
     10322     10321     10323     10322     10321     10324     10323     10321     10324
     10324     10327     10328     10324     10327     10329     10324     10327     10330
     10325     10324     10326     10325     10324     10327     10326     10324     10327
     10327     10330     10331     10327     10330     10332     10327     10330     10333
     10328     10327     10329     10328     10327     10330     10329     10327     10330
     10330     10333     10334     10330     10333     10335     10330     10333     10336
     10331     10330     10332     10331     10330     10333     10332     10330     10333
     10334     10333     10335     10334     10333     10336     10335     10333     10336
     10337     10338     10339     10337     10338     10340     10337     10338     10353
     10337     10341     10342     10337     10341     10343     10337     10341     10344
     10337     10345     10346     10337     10345     10347     10337     10345     10348
     10337     10349     10350     10337     10349     10351     10337     10349     10352
     10338     10337     10341     10338     10337     10345     10338     10337     10349
     10338     10353     10354     10338     10353     10355     10338     10353     10359
     10339     10338     10340     10339     10338     10353     10340     10338     10353
     10341     10337     10345     10341     10337     10349     10342     10341     10343
     10342     10341     10344     10343     10341     10344     10345     10337     10349
     10346     10345     10347     10346     10345     10348     10347     10345     10348
     10350     10349     10351     10350     10349     10352     10351     10349     10352
     10353     10359     10356     10354     10353     10355     10354     10353     10359
     10355     10353     10359     10356     10360     10361     10357     10356     10358
     10357     10356     10359     10357     10356     10360     10358     10356     10359
     10358     10356     10360     10359     10356     10360     10360     10361     10362
     10360     10361     10363     10360     10361     10364     10361     10364     10365
     10361     10364     10366     10361     10364     10372     10362     10361     10363
     10362     10361     10364     10363     10361     10364     10364     10366     10367
     10364     10372     10373     10364     10372     10374     10364     10372     10375
     10365     10364     10366     10365     10364     10372     10366     10364     10372
     10366     10367     10368     10366     10367     10369     10367     10369     10370
     10367     10369     10371     10367     10369     10381     10368     10367     10369
     10369     10381     10382     10369     10381     10383     10369     10381     10384
     10370     10369     10371     10370     10369     10381     10371     10369     10381
     10372     10375     10376     10373     10372     10374     10373     10372     10375
     10374     10372     10375     10375     10376     10377     10375     10376     10378
     10376     10378     10379     10376     10378     10380     10376     10378     10428
     10377     10376     10378     10378     10428     10429     10378     10428     10430
     10378     10428     10431     10379     10378     10380     10379     10378     10428
     10380     10378     10428     10381     10384     10385     10381     10384     10386
     10381     10384     10387     10382     10381     10383     10382     10381     10384
     10383     10381     10384     10384     10387     10388     10384     10387     10389
     10385     10384     10386     10385     10384     10387     10386     10384     10387
     10387     10389     10390     10387     10389     10391     10388     10387     10389
     10389     10391     10392     10389     10391     10393     10389     10391     10394
     10390     10389     10391     10391     10394     10395     10391     10394     10396
     10392     10391     10393     10392     10391     10394     10393     10391     10394
     10394     10396     10397     10394     10396     10398     10395     10394     10396
     10396     10398     10399     10396     10398     10400     10396     10398     10401
     10397     10396     10398     10398     10401     10402     10398     10401     10403
     10399     10398     10400     10399     10398     10401     10400     10398     10401
     10401     10403     10404     10401     10403     10405     10402     10401     10403
     10403     10405     10406     10403     10405     10407     10403     10405     10408
     10404     10403     10405     10405     10408     10409     10405     10408     10410
     10406     10405     10407     10406     10405     10408     10407     10405     10408
     10408     10410     10411     10408     10410     10412     10409     10408     10410
     10410     10412     10413     10410     10412     10414     10410     10412     10415
     10411     10410     10412     10412     10415     10416     10412     10415     10417
     10412     10415     10418     10413     10412     10414     10413     10412     10415
     10414     10412     10415     10415     10418     10419     10415     10418     10420
     10415     10418     10421     10416     10415     10417     10416     10415     10418
     10417     10415     10418     10418     10421     10422     10418     10421     10423
     10418     10421     10424     10419     10418     10420     10419     10418     10421
     10420     10418     10421     10421     10424     10425     10421     10424     10426
     10421     10424     10427     10422     10421     10423     10422     10421     10424
     10423     10421     10424     10425     10424     10426     10425     10424     10427
     10426     10424     10427     10428     10431     10432     10428     10431     10433
     10428     10431     10434     10429     10428     10430     10429     10428     10431
     10430     10428     10431     10431     10434     10435     10431     10434     10436
     10431     10434     10437     10432     10431     10433     10432     10431     10434
     10433     10431     10434     10434     10437     10438     10434     10437     10439
     10434     10437     10440     10435     10434     10436     10435     10434     10437
     10436     10434     10437     10437     10440     10441     10437     10440     10442
     10437     10440     10443     10438     10437     10439     10438     10437     10440
     10439     10437     10440     10440     10443     10444     10440     10443     10445
     10440     10443     10446     10441     10440     10442     10441     10440     10443
     10442     10440     10443     10443     10446     10447     10443     10446     10448
     10443     10446     10449     10444     10443     10445     10444     10443     10446
     10445     10443     10446     10446     10449     10450     10446     10449     10451
     10446     10449     10452     10447     10446     10448     10447     10446     10449
     10448     10446     10449     10449     10452     10453     10449     10452     10454
     10449     10452     10455     10450     10449     10451     10450     10449     10452
     10451     10449     10452     10452     10455     10456     10452     10455     10457
     10452     10455     10458     10453     10452     10454     10453     10452     10455
     10454     10452     10455     10455     10458     10459     10455     10458     10460
     10455     10458     10461     10456     10455     10457     10456     10455     10458
     10457     10455     10458     10458     10461     10462     10458     10461     10463
     10458     10461     10464     10459     10458     10460     10459     10458     10461
     10460     10458     10461     10461     10464     10465     10461     10464     10466
     10461     10464     10467     10462     10461     10463     10462     10461     10464
     10463     10461     10464     10464     10467     10468     10464     10467     10469
     10464     10467     10470     10465     10464     10466     10465     10464     10467
     10466     10464     10467     10467     10470     10471     10467     10470     10472
     10467     10470     10473     10468     10467     10469     10468     10467     10470
     10469     10467     10470     10470     10473     10474     10470     10473     10475
     10470     10473     10476     10471     10470     10472     10471     10470     10473
     10472     10470     10473     10474     10473     10475     10474     10473     10476
     10475     10473     10476     10477     10479     10480     10477     10481     10482
     10477     10481     10483     10477     10481     10484     10477     10523     10520
     10477     10523     10524     10477     10523     10525     10478     10477     10479
     10478     10477     10481     10478     10477     10523     10479     10477     10481
     10479     10477     10523     10481     10477     10523     10481     10484     10485
     10481     10484     10515     10482     10481     10483     10482     10481     10484
     10483     10481     10484     10484     10485     10486     10484     10485     10487
     10484     10515     10513     10484     10515     10516     10484     10515     10520
     10485     10484     10515     10485     10487     10488     10485     10487     10489
     10485     10487     10490     10486     10485     10487     10487     10490     10491
     10487     10490     10492     10487     10490     10513     10488     10487     10489
     10488     10487     10490     10489     10487     10490     10490     10492     10493
     10490     10492     10494     10490     10492     10502     10490     10513     10510
     10490     10513     10514     10490     10513     10515     10491     10490     10492
     10491     10490     10513     10492     10490     10513     10492     10494     10495
     10492     10494     10496     10492     10494     10497     10492     10502     10500
     10492     10502     10503     10492     10502     10507     10493     10492     10494
     10493     10492     10502     10494     10492     10502     10494     10497     10498
     10494     10497     10499     10494     10497     10500     10495     10494     10496
     10495     10494     10497     10496     10494     10497     10497     10500     10501
     10497     10500     10502     10497     10500     10526     10498     10497     10499
     10498     10497     10500     10499     10497     10500     10500     10502     10503
     10500     10502     10507     10500     10526     10527     10500     10526     10528
     10500     10526     10532     10501     10500     10502     10501     10500     10526
     10502     10500     10526     10502     10503     10504     10502     10503     10505
     10502     10503     10506     10502     10507     10508     10502     10507     10509
     10502     10507     10510     10503     10502     10507     10504     10503     10505
     10504     10503     10506     10505     10503     10506     10507     10510     10511
     10507     10510     10512     10507     10510     10513     10508     10507     10509
     10508     10507     10510     10509     10507     10510     10510     10513     10514
     10510     10513     10515     10511     10510     10512     10511     10510     10513
     10512     10510     10513     10513     10515     10516     10513     10515     10520
     10514     10513     10515     10515     10516     10517     10515     10516     10518
     10515     10516     10519     10515     10520     10521     10515     10520     10522
     10515     10520     10523     10516     10515     10520     10517     10516     10518
     10517     10516     10519     10518     10516     10519     10520     10523     10524
     10520     10523     10525     10521     10520     10522     10521     10520     10523
     10522     10520     10523     10524     10523     10525     10526     10528     10529
     10526     10528     10530     10526     10528     10531     10526     10532     10533
     10526     10532     10534     10526     10532     10535     10527     10526     10528
     10527     10526     10532     10528     10526     10532     10529     10528     10530
     10529     10528     10531     10530     10528     10531     10532     10535     10536
     10532     10535     10537     10532     10535     10538     10533     10532     10534
     10533     10532     10535     10534     10532     10535     10535     10538     10539
     10535     10538     10540     10535     10538     10541     10536     10535     10537
     10536     10535     10538     10537     10535     10538     10538     10541     10542
     10538     10541     10543     10538     10541     10547     10539     10538     10540
     10539     10538     10541     10540     10538     10541     10541     10543     10544
     10541     10543     10545     10541     10543     10546     10541     10547     10548
     10541     10547     10549     10541     10547     10550     10542     10541     10543
     10542     10541     10547     10543     10541     10547     10544     10543     10545
     10544     10543     10546     10545     10543     10546     10548     10547     10549
     10548     10547     10550     10549     10547     10550     10551     10555     10556
     10551     10555     10557     10551     10555     10558     10552     10551     10553
     10552     10551     10554     10552     10551     10555     10553     10551     10554
     10553     10551     10555     10554     10551     10555     10555     10558     10559
     10555     10558     10560     10555     10558     10564     10556     10555     10557
     10556     10555     10558     10557     10555     10558     10558     10564     10561
     10559     10558     10560     10559     10558     10564     10560     10558     10564
     10561     10565     10566     10562     10561     10563     10562     10561     10564
     10562     10561     10565     10563     10561     10564     10563     10561     10565
     10564     10561     10565     10565     10566     10567     10565     10566     10568
     10565     10566     10569     10566     10569     10570     10566     10569     10571
     10566     10569     10577     10567     10566     10568     10567     10566     10569
     10568     10566     10569     10569     10571     10572     10569     10577     10578
     10569     10577     10579     10569     10577     10580     10570     10569     10571
     10570     10569     10577     10571     10569     10577     10571     10572     10573
     10571     10572     10574     10572     10574     10575     10572     10574     10576
     10572     10574     10586     10573     10572     10574     10574     10586     10587
     10574     10586     10588     10574     10586     10589     10575     10574     10576
     10575     10574     10586     10576     10574     10586     10577     10580     10581
     10578     10577     10579     10578     10577     10580     10579     10577     10580
     10580     10581     10582     10580     10581     10583     10581     10583     10584
     10581     10583     10585     10581     10583     10633     10582     10581     10583
     10583     10633     10634     10583     10633     10635     10583     10633     10636
     10584     10583     10585     10584     10583     10633     10585     10583     10633
     10586     10589     10590     10586     10589     10591     10586     10589     10592
     10587     10586     10588     10587     10586     10589     10588     10586     10589
     10589     10592     10593     10589     10592     10594     10590     10589     10591
     10590     10589     10592     10591     10589     10592     10592     10594     10595
     10592     10594     10596     10593     10592     10594     10594     10596     10597
     10594     10596     10598     10594     10596     10599     10595     10594     10596
     10596     10599     10600     10596     10599     10601     10597     10596     10598
     10597     10596     10599     10598     10596     10599     10599     10601     10602
     10599     10601     10603     10600     10599     10601     10601     10603     10604
     10601     10603     10605     10601     10603     10606     10602     10601     10603
     10603     10606     10607     10603     10606     10608     10604     10603     10605
     10604     10603     10606     10605     10603     10606     10606     10608     10609
     10606     10608     10610     10607     10606     10608     10608     10610     10611
     10608     10610     10612     10608     10610     10613     10609     10608     10610
     10610     10613     10614     10610     10613     10615     10611     10610     10612
     10611     10610     10613     10612     10610     10613     10613     10615     10616
     10613     10615     10617     10614     10613     10615     10615     10617     10618
     10615     10617     10619     10615     10617     10620     10616     10615     10617
     10617     10620     10621     10617     10620     10622     10617     10620     10623
     10618     10617     10619     10618     10617     10620     10619     10617     10620
     10620     10623     10624     10620     10623     10625     10620     10623     10626
     10621     10620     10622     10621     10620     10623     10622     10620     10623
     10623     10626     10627     10623     10626     10628     10623     10626     10629
     10624     10623     10625     10624     10623     10626     10625     10623     10626
     10626     10629     10630     10626     10629     10631     10626     10629     10632
     10627     10626     10628     10627     10626     10629     10628     10626     10629
     10630     10629     10631     10630     10629     10632     10631     10629     10632
     10633     10636     10637     10633     10636     10638     10633     10636     10639
     10634     10633     10635     10634     10633     10636     10635     10633     10636
     10636     10639     10640     10636     10639     10641     10636     10639     10642
     10637     10636     10638     10637     10636     10639     10638     10636     10639
     10639     10642     10643     10639     10642     10644     10639     10642     10645
     10640     10639     10641     10640     10639     10642     10641     10639     10642
     10642     10645     10646     10642     10645     10647     10642     10645     10648
     10643     10642     10644     10643     10642     10645     10644     10642     10645
     10645     10648     10649     10645     10648     10650     10645     10648     10651
     10646     10645     10647     10646     10645     10648     10647     10645     10648
     10648     10651     10652     10648     10651     10653     10648     10651     10654
     10649     10648     10650     10649     10648     10651     10650     10648     10651
     10651     10654     10655     10651     10654     10656     10651     10654     10657
     10652     10651     10653     10652     10651     10654     10653     10651     10654
     10654     10657     10658     10654     10657     10659     10654     10657     10660
     10655     10654     10656     10655     10654     10657     10656     10654     10657
     10657     10660     10661     10657     10660     10662     10657     10660     10663
     10658     10657     10659     10658     10657     10660     10659     10657     10660
     10660     10663     10664     10660     10663     10665     10660     10663     10666
     10661     10660     10662     10661     10660     10663     10662     10660     10663
     10663     10666     10667     10663     10666     10668     10663     10666     10669
     10664     10663     10665     10664     10663     10666     10665     10663     10666
     10666     10669     10670     10666     10669     10671     10666     10669     10672
     10667     10666     10668     10667     10666     10669     10668     10666     10669
     10669     10672     10673     10669     10672     10674     10669     10672     10675
     10670     10669     10671     10670     10669     10672     10671     10669     10672
     10672     10675     10676     10672     10675     10677     10672     10675     10678
     10673     10672     10674     10673     10672     10675     10674     10672     10675
     10675     10678     10679     10675     10678     10680     10675     10678     10681
     10676     10675     10677     10676     10675     10678     10677     10675     10678
     10679     10678     10680     10679     10678     10681     10680     10678     10681
     10682     10684     10685     10682     10686     10687     10682     10686     10688
     10682     10686     10689     10682     10728     10725     10682     10728     10729
     10682     10728     10730     10683     10682     10684     10683     10682     10686
     10683     10682     10728     10684     10682     10686     10684     10682     10728
     10686     10682     10728     10686     10689     10690     10686     10689     10720
     10687     10686     10688     10687     10686     10689     10688     10686     10689
     10689     10690     10691     10689     10690     10692     10689     10720     10718
     10689     10720     10721     10689     10720     10725     10690     10689     10720
     10690     10692     10693     10690     10692     10694     10690     10692     10695
     10691     10690     10692     10692     10695     10696     10692     10695     10697
     10692     10695     10718     10693     10692     10694     10693     10692     10695
     10694     10692     10695     10695     10697     10698     10695     10697     10699
     10695     10697     10707     10695     10718     10715     10695     10718     10719
     10695     10718     10720     10696     10695     10697     10696     10695     10718
     10697     10695     10718     10697     10699     10700     10697     10699     10701
     10697     10699     10702     10697     10707     10705     10697     10707     10708
     10697     10707     10712     10698     10697     10699     10698     10697     10707
     10699     10697     10707     10699     10702     10703     10699     10702     10704
     10699     10702     10705     10700     10699     10701     10700     10699     10702
     10701     10699     10702     10702     10705     10706     10702     10705     10707
     10702     10705     10731     10703     10702     10704     10703     10702     10705
     10704     10702     10705     10705     10707     10708     10705     10707     10712
     10705     10731     10732     10705     10731     10733     10705     10731     10737
     10706     10705     10707     10706     10705     10731     10707     10705     10731
     10707     10708     10709     10707     10708     10710     10707     10708     10711
     10707     10712     10713     10707     10712     10714     10707     10712     10715
     10708     10707     10712     10709     10708     10710     10709     10708     10711
     10710     10708     10711     10712     10715     10716     10712     10715     10717
     10712     10715     10718     10713     10712     10714     10713     10712     10715
     10714     10712     10715     10715     10718     10719     10715     10718     10720
     10716     10715     10717     10716     10715     10718     10717     10715     10718
     10718     10720     10721     10718     10720     10725     10719     10718     10720
     10720     10721     10722     10720     10721     10723     10720     10721     10724
     10720     10725     10726     10720     10725     10727     10720     10725     10728
     10721     10720     10725     10722     10721     10723     10722     10721     10724
     10723     10721     10724     10725     10728     10729     10725     10728     10730
     10726     10725     10727     10726     10725     10728     10727     10725     10728
     10729     10728     10730     10731     10733     10734     10731     10733     10735
     10731     10733     10736     10731     10737     10738     10731     10737     10739
     10731     10737     10740     10732     10731     10733     10732     10731     10737
     10733     10731     10737     10734     10733     10735     10734     10733     10736
     10735     10733     10736     10737     10740     10741     10737     10740     10742
     10737     10740     10743     10738     10737     10739     10738     10737     10740
     10739     10737     10740     10740     10743     10744     10740     10743     10745
     10740     10743     10746     10741     10740     10742     10741     10740     10743
     10742     10740     10743     10743     10746     10747     10743     10746     10748
     10743     10746     10752     10744     10743     10745     10744     10743     10746
     10745     10743     10746     10746     10748     10749     10746     10748     10750
     10746     10748     10751     10746     10752     10753     10746     10752     10754
     10746     10752     10755     10747     10746     10748     10747     10746     10752
     10748     10746     10752     10749     10748     10750     10749     10748     10751
     10750     10748     10751     10753     10752     10754     10753     10752     10755
     10754     10752     10755     10756     10757     10758     10756     10757     10759
     10756     10757     10772     10756     10760     10761     10756     10760     10762
     10756     10760     10763     10756     10764     10765     10756     10764     10766
     10756     10764     10767     10756     10768     10769     10756     10768     10770
     10756     10768     10771     10757     10756     10760     10757     10756     10764
     10757     10756     10768     10757     10772     10773     10757     10772     10774
     10757     10772     10778     10758     10757     10759     10758     10757     10772
     10759     10757     10772     10760     10756     10764     10760     10756     10768
     10761     10760     10762     10761     10760     10763     10762     10760     10763
     10764     10756     10768     10765     10764     10766     10765     10764     10767
     10766     10764     10767     10769     10768     10770     10769     10768     10771
     10770     10768     10771     10772     10778     10775     10773     10772     10774
     10773     10772     10778     10774     10772     10778     10775     10779     10780
     10776     10775     10777     10776     10775     10778     10776     10775     10779
     10777     10775     10778     10777     10775     10779     10778     10775     10779
     10779     10780     10781     10779     10780     10782     10779     10780     10783
     10780     10783     10784     10780     10783     10785     10780     10783     10791
     10781     10780     10782     10781     10780     10783     10782     10780     10783
     10783     10785     10786     10783     10791     10792     10783     10791     10793
     10783     10791     10794     10784     10783     10785     10784     10783     10791
     10785     10783     10791     10785     10786     10787     10785     10786     10788
     10786     10788     10789     10786     10788     10790     10786     10788     10800
     10787     10786     10788     10788     10800     10801     10788     10800     10802
     10788     10800     10803     10789     10788     10790     10789     10788     10800
     10790     10788     10800     10791     10794     10795     10792     10791     10793
     10792     10791     10794     10793     10791     10794     10794     10795     10796
     10794     10795     10797     10795     10797     10798     10795     10797     10799
     10795     10797     10847     10796     10795     10797     10797     10847     10848
     10797     10847     10849     10797     10847     10850     10798     10797     10799
     10798     10797     10847     10799     10797     10847     10800     10803     10804
     10800     10803     10805     10800     10803     10806     10801     10800     10802
     10801     10800     10803     10802     10800     10803     10803     10806     10807
     10803     10806     10808     10803     10806     10809     10804     10803     10805
     10804     10803     10806     10805     10803     10806     10806     10809     10810
     10806     10809     10811     10806     10809     10812     10807     10806     10808
     10807     10806     10809     10808     10806     10809     10809     10812     10813
     10809     10812     10814     10809     10812     10815     10810     10809     10811
     10810     10809     10812     10811     10809     10812     10812     10815     10816
     10812     10815     10817     10812     10815     10818     10813     10812     10814
     10813     10812     10815     10814     10812     10815     10815     10818     10819
     10815     10818     10820     10816     10815     10817     10816     10815     10818
     10817     10815     10818     10818     10820     10821     10818     10820     10822
     10819     10818     10820     10820     10822     10823     10820     10822     10824
     10820     10822     10825     10821     10820     10822     10822     10825     10826
     10822     10825     10827     10822     10825     10828     10823     10822     10824
     10823     10822     10825     10824     10822     10825     10825     10828     10829
     10825     10828     10830     10825     10828     10831     10826     10825     10827
     10826     10825     10828     10827     10825     10828     10828     10831     10832
     10828     10831     10833     10828     10831     10834     10829     10828     10830
     10829     10828     10831     10830     10828     10831     10831     10834     10835
     10831     10834     10836     10831     10834     10837     10832     10831     10833
     10832     10831     10834     10833     10831     10834     10834     10837     10838
     10834     10837     10839     10834     10837     10840     10835     10834     10836
     10835     10834     10837     10836     10834     10837     10837     10840     10841
     10837     10840     10842     10837     10840     10843     10838     10837     10839
     10838     10837     10840     10839     10837     10840     10840     10843     10844
     10840     10843     10845     10840     10843     10846     10841     10840     10842
     10841     10840     10843     10842     10840     10843     10844     10843     10845
     10844     10843     10846     10845     10843     10846     10847     10850     10851
     10847     10850     10852     10847     10850     10853     10848     10847     10849
     10848     10847     10850     10849     10847     10850     10850     10853     10854
     10850     10853     10855     10850     10853     10856     10851     10850     10852
     10851     10850     10853     10852     10850     10853     10853     10856     10857
     10853     10856     10858     10853     10856     10859     10854     10853     10855
     10854     10853     10856     10855     10853     10856     10856     10859     10860
     10856     10859     10861     10856     10859     10862     10857     10856     10858
     10857     10856     10859     10858     10856     10859     10859     10862     10863
     10859     10862     10864     10859     10862     10865     10860     10859     10861
     10860     10859     10862     10861     10859     10862     10862     10865     10866
     10862     10865     10867     10862     10865     10868     10863     10862     10864
     10863     10862     10865     10864     10862     10865     10865     10868     10869
     10865     10868     10870     10865     10868     10871     10866     10865     10867
     10866     10865     10868     10867     10865     10868     10868     10871     10872
     10868     10871     10873     10868     10871     10874     10869     10868     10870
     10869     10868     10871     10870     10868     10871     10871     10874     10875
     10871     10874     10876     10871     10874     10877     10872     10871     10873
     10872     10871     10874     10873     10871     10874     10874     10877     10878
     10874     10877     10879     10874     10877     10880     10875     10874     10876
     10875     10874     10877     10876     10874     10877     10877     10880     10881
     10877     10880     10882     10877     10880     10883     10878     10877     10879
     10878     10877     10880     10879     10877     10880     10880     10883     10884
     10880     10883     10885     10880     10883     10886     10881     10880     10882
     10881     10880     10883     10882     10880     10883     10883     10886     10887
     10883     10886     10888     10883     10886     10889     10884     10883     10885
     10884     10883     10886     10885     10883     10886     10887     10886     10888
     10887     10886     10889     10888     10886     10889     10890     10894     10895
     10890     10894     10896     10890     10894     10899     10891     10890     10892
     10891     10890     10893     10891     10890     10894     10892     10890     10893
     10892     10890     10894     10893     10890     10894     10894     10896     10897
     10894     10896     10898     10894     10899     10900     10894     10899     10901
     10894     10899     10905     10895     10894     10896     10895     10894     10899
     10896     10894     10899     10897     10896     10898     10899     10905     10902
     10900     10899     10901     10900     10899     10905     10901     10899     10905
     10902     10906     10907     10903     10902     10904     10903     10902     10905
     10903     10902     10906     10904     10902     10905     10904     10902     10906
     10905     10902     10906     10906     10907     10908     10906     10907     10909
     10906     10907     10910     10907     10910     10911     10907     10910     10912
     10907     10910     10918     10908     10907     10909     10908     10907     10910
     10909     10907     10910     10910     10912     10913     10910     10918     10919
     10910     10918     10920     10910     10918     10921     10911     10910     10912
     10911     10910     10918     10912     10910     10918     10912     10913     10914
     10912     10913     10915     10913     10915     10916     10913     10915     10917
     10913     10915     10927     10914     10913     10915     10915     10927     10928
     10915     10927     10929     10915     10927     10930     10916     10915     10917
     10916     10915     10927     10917     10915     10927     10918     10921     10922
     10919     10918     10920     10919     10918     10921     10920     10918     10921
     10921     10922     10923     10921     10922     10924     10922     10924     10925
     10922     10924     10926     10922     10924     10974     10923     10922     10924
     10924     10974     10975     10924     10974     10976     10924     10974     10977
     10925     10924     10926     10925     10924     10974     10926     10924     10974
     10927     10930     10931     10927     10930     10932     10927     10930     10933
     10928     10927     10929     10928     10927     10930     10929     10927     10930
     10930     10933     10934     10930     10933     10935     10931     10930     10932
     10931     10930     10933     10932     10930     10933     10933     10935     10936
     10933     10935     10937     10934     10933     10935     10935     10937     10938
     10935     10937     10939     10935     10937     10940     10936     10935     10937
     10937     10940     10941     10937     10940     10942     10938     10937     10939
     10938     10937     10940     10939     10937     10940     10940     10942     10943
     10940     10942     10944     10941     10940     10942     10942     10944     10945
     10942     10944     10946     10942     10944     10947     10943     10942     10944
     10944     10947     10948     10944     10947     10949     10945     10944     10946
     10945     10944     10947     10946     10944     10947     10947     10949     10950
     10947     10949     10951     10948     10947     10949     10949     10951     10952
     10949     10951     10953     10949     10951     10954     10950     10949     10951
     10951     10954     10955     10951     10954     10956     10952     10951     10953
     10952     10951     10954     10953     10951     10954     10954     10956     10957
     10954     10956     10958     10955     10954     10956     10956     10958     10959
     10956     10958     10960     10956     10958     10961     10957     10956     10958
     10958     10961     10962     10958     10961     10963     10958     10961     10964
     10959     10958     10960     10959     10958     10961     10960     10958     10961
     10961     10964     10965     10961     10964     10966     10961     10964     10967
     10962     10961     10963     10962     10961     10964     10963     10961     10964
     10964     10967     10968     10964     10967     10969     10964     10967     10970
     10965     10964     10966     10965     10964     10967     10966     10964     10967
     10967     10970     10971     10967     10970     10972     10967     10970     10973
     10968     10967     10969     10968     10967     10970     10969     10967     10970
     10971     10970     10972     10971     10970     10973     10972     10970     10973
     10974     10977     10978     10974     10977     10979     10974     10977     10980
     10975     10974     10976     10975     10974     10977     10976     10974     10977
     10977     10980     10981     10977     10980     10982     10977     10980     10983
     10978     10977     10979     10978     10977     10980     10979     10977     10980
     10980     10983     10984     10980     10983     10985     10980     10983     10986
     10981     10980     10982     10981     10980     10983     10982     10980     10983
     10983     10986     10987     10983     10986     10988     10983     10986     10989
     10984     10983     10985     10984     10983     10986     10985     10983     10986
     10986     10989     10990     10986     10989     10991     10986     10989     10992
     10987     10986     10988     10987     10986     10989     10988     10986     10989
     10989     10992     10993     10989     10992     10994     10989     10992     10995
     10990     10989     10991     10990     10989     10992     10991     10989     10992
     10992     10995     10996     10992     10995     10997     10992     10995     10998
     10993     10992     10994     10993     10992     10995     10994     10992     10995
     10995     10998     10999     10995     10998     11000     10995     10998     11001
     10996     10995     10997     10996     10995     10998     10997     10995     10998
     10998     11001     11002     10998     11001     11003     10998     11001     11004
     10999     10998     11000     10999     10998     11001     11000     10998     11001
     11001     11004     11005     11001     11004     11006     11001     11004     11007
     11002     11001     11003     11002     11001     11004     11003     11001     11004
     11004     11007     11008     11004     11007     11009     11004     11007     11010
     11005     11004     11006     11005     11004     11007     11006     11004     11007
     11007     11010     11011     11007     11010     11012     11007     11010     11013
     11008     11007     11009     11008     11007     11010     11009     11007     11010
     11010     11013     11014     11010     11013     11015     11010     11013     11016
     11011     11010     11012     11011     11010     11013     11012     11010     11013
     11013     11016     11017     11013     11016     11018     11013     11016     11019
     11014     11013     11015     11014     11013     11016     11015     11013     11016
     11016     11019     11020     11016     11019     11021     11016     11019     11022
     11017     11016     11018     11017     11016     11019     11018     11016     11019
     11020     11019     11021     11020     11019     11022     11021     11019     11022
     11023     11024     11025     11023     11024     11026     11023     11024     11027
     11023     11028     11029     11023     11028     11030     11023     11028     11031
     11023     11032     11033     11023     11032     11034     11023     11032     11035
     11023     11036     11037     11023     11036     11038     11023     11036     11039
     11024     11023     11028     11024     11023     11032     11024     11023     11036
     11025     11024     11026     11025     11024     11027     11026     11024     11027
     11028     11023     11032     11028     11023     11036     11029     11028     11030
     11029     11028     11031     11030     11028     11031     11032     11023     11036
     11033     11032     11034     11033     11032     11035     11034     11032     11035
     11036     11039     11040     11036     11039     11041     11036     11039     11045
     11037     11036     11038     11037     11036     11039     11038     11036     11039
     11039     11045     11042     11040     11039     11041     11040     11039     11045
     11041     11039     11045     11042     11046     11047     11043     11042     11044
     11043     11042     11045     11043     11042     11046     11044     11042     11045
     11044     11042     11046     11045     11042     11046     11046     11047     11048
     11046     11047     11049     11046     11047     11050     11047     11050     11051
     11047     11050     11052     11047     11050     11058     11048     11047     11049
     11048     11047     11050     11049     11047     11050     11050     11052     11053
     11050     11058     11059     11050     11058     11060     11050     11058     11061
     11051     11050     11052     11051     11050     11058     11052     11050     11058
     11052     11053     11054     11052     11053     11055     11053     11055     11056
     11053     11055     11057     11053     11055     11067     11054     11053     11055
     11055     11067     11068     11055     11067     11069     11055     11067     11070
     11056     11055     11057     11056     11055     11067     11057     11055     11067
     11058     11061     11062     11059     11058     11060     11059     11058     11061
     11060     11058     11061     11061     11062     11063     11061     11062     11064
     11062     11064     11065     11062     11064     11066     11062     11064     11112
     11063     11062     11064     11064     11112     11113     11064     11112     11114
     11064     11112     11115     11065     11064     11066     11065     11064     11112
     11066     11064     11112     11067     11070     11071     11067     11070     11072
     11067     11070     11073     11068     11067     11069     11068     11067     11070
     11069     11067     11070     11070     11073     11074     11070     11073     11075
     11070     11073     11076     11071     11070     11072     11071     11070     11073
     11072     11070     11073     11073     11076     11077     11073     11076     11078
     11073     11076     11079     11074     11073     11075     11074     11073     11076
     11075     11073     11076     11076     11079     11080     11076     11079     11081
     11076     11079     11082     11077     11076     11078     11077     11076     11079
     11078     11076     11079     11079     11082     11083     11079     11082     11084
     11079     11082     11085     11080     11079     11081     11080     11079     11082
     11081     11079     11082     11082     11085     11086     11082     11085     11087
     11083     11082     11084     11083     11082     11085     11084     11082     11085
     11085     11087     11088     11085     11087     11089     11086     11085     11087
     11087     11089     11090     11087     11089     11091     11087     11089     11092
     11088     11087     11089     11089     11092     11093     11089     11092     11094
     11090     11089     11091     11090     11089     11092     11091     11089     11092
     11092     11094     11095     11092     11094     11096     11093     11092     11094
     11094     11096     11097     11094     11096     11098     11094     11096     11099
     11095     11094     11096     11096     11099     11100     11096     11099     11101
     11096     11099     11102     11097     11096     11098     11097     11096     11099
     11098     11096     11099     11099     11102     11103     11099     11102     11104
     11099     11102     11105     11100     11099     11101     11100     11099     11102
     11101     11099     11102     11102     11105     11106     11102     11105     11107
     11102     11105     11108     11103     11102     11104     11103     11102     11105
     11104     11102     11105     11105     11108     11109     11105     11108     11110
     11105     11108     11111     11106     11105     11107     11106     11105     11108
     11107     11105     11108     11109     11108     11110     11109     11108     11111
     11110     11108     11111     11112     11115     11116     11112     11115     11117
     11112     11115     11118     11113     11112     11114     11113     11112     11115
     11114     11112     11115     11115     11118     11119     11115     11118     11120
     11115     11118     11121     11116     11115     11117     11116     11115     11118
     11117     11115     11118     11118     11121     11122     11118     11121     11123
     11118     11121     11124     11119     11118     11120     11119     11118     11121
     11120     11118     11121     11121     11124     11125     11121     11124     11126
     11121     11124     11127     11122     11121     11123     11122     11121     11124
     11123     11121     11124     11124     11127     11128     11124     11127     11129
     11124     11127     11130     11125     11124     11126     11125     11124     11127
     11126     11124     11127     11127     11130     11131     11127     11130     11132
     11127     11130     11133     11128     11127     11129     11128     11127     11130
     11129     11127     11130     11130     11133     11134     11130     11133     11135
     11130     11133     11136     11131     11130     11132     11131     11130     11133
     11132     11130     11133     11133     11136     11137     11133     11136     11138
     11133     11136     11139     11134     11133     11135     11134     11133     11136
     11135     11133     11136     11136     11139     11140     11136     11139     11141
     11136     11139     11142     11137     11136     11138     11137     11136     11139
     11138     11136     11139     11139     11142     11143     11139     11142     11144
     11139     11142     11145     11140     11139     11141     11140     11139     11142
     11141     11139     11142     11142     11145     11146     11142     11145     11147
     11142     11145     11148     11143     11142     11144     11143     11142     11145
     11144     11142     11145     11145     11148     11149     11145     11148     11150
     11145     11148     11151     11146     11145     11147     11146     11145     11148
     11147     11145     11148     11148     11151     11152     11148     11151     11153
     11148     11151     11154     11149     11148     11150     11149     11148     11151
     11150     11148     11151     11151     11154     11155     11151     11154     11156
     11151     11154     11157     11152     11151     11153     11152     11151     11154
     11153     11151     11154     11154     11157     11158     11154     11157     11159
     11154     11157     11160     11155     11154     11156     11155     11154     11157
     11156     11154     11157     11158     11157     11159     11158     11157     11160
     11159     11157     11160     11162     11161     11163     11165     11164     11166
     11168     11167     11169     11171     11170     11172     11174     11173     11175
     11177     11176     11178     11180     11179     11181     11183     11182     11184
     11186     11185     11187     11189     11188     11190     11192     11191     11193
     11195     11194     11196     11198     11197     11199     11201     11200     11202
     11204     11203     11205     11207     11206     11208     11210     11209     11211
     11213     11212     11214     11216     11215     11217     11219     11218     11220
     11222     11221     11223     11225     11224     11226     11228     11227     11229
     11231     11230     11232     11234     11233     11235     11237     11236     11238
     11240     11239     11241     11243     11242     11244     11246     11245     11247
     11249     11248     11250     11252     11251     11253     11255     11254     11256
     11258     11257     11259     11261     11260     11262     11264     11263     11265
     11267     11266     11268     11270     11269     11271     11273     11272     11274
     11276     11275     11277     11279     11278     11280     11282     11281     11283
     11285     11284     11286     11288     11287     11289     11291     11290     11292
     11294     11293     11295     11297     11296     11298

     30970 !NPHI: dihedrals
         1        14        17        18         1        14        17        19
         1        14        17        24         2         1         6         7
         2         1         6         8         2         1         6         9
         2         1        10        11         2         1        10        12
         2         1        10        13         2         1        14        15
         2         1        14        16         2         1        14        17
         3         2         1         6         3         2         1        10
         3         2         1        14         4         2         1         6
         4         2         1        10         4         2         1        14
         5         2         1         6         5         2         1        10
         5         2         1        14         6         1        10        11
         6         1        10        12         6         1        10        13
         6         1        14        15         6         1        14        16
         6         1        14        17         7         6         1        10
         7         6         1        14         8         6         1        10
         8         6         1        14         9         6         1        10
         9         6         1        14        10         1        14        15
        10         1        14        16        10         1        14        17
        11        10         1        14        12        10         1        14
        13        10         1        14        14        17        24        20
        15        14        17        18        15        14        17        19
        15        14        17        24        16        14        17        18
        16        14        17        19        16        14        17        24
        17        24        20        21        17        24        20        22
        17        24        20        23        18        17        24        20
        19        17        24        20        20        23        25        26
        20        23        25        27        20        23        25        30
        21        20        23        25        22        20        23        25
        23        25        30        28        23        25        30        31
        23        25        30        32        24        20        23        25
        25        30        28        29        25        30        28        80
        25        30        32        33        25        30        32        34
        25        30        32        36        26        25        30        28
        26        25        30        31        26        25        30        32
        27        25        30        28        27        25        30        31
        27        25        30        32        28        30        32        33
        28        30        32        34        28        30        32        36
        28        80        82        83        28        80        82        84
        28        80        82        85        29        28        30        31
        29        28        30        32        29        28        80        81
        29        28        80        82        30        28        80        81
        30        28        80        82        30        32        34        35
        30        32        36        37        30        32        36        38
        31        30        28        80        31        30        32        33
        31        30        32        34        31        30        32        36
        32        30        28        80        32        36        38        39
        32        36        38        40        33        32        34        35
        33        32        36        37        33        32        36        38
        34        32        36        37        34        32        36        38
        35        34        32        36        36        38        40        41
        36        38        40        42        36        38        40        43
        37        36        38        39        37        36        38        40
        38        40        43        44        38        40        43        45
        38        40        43        46        39        38        40        41
        39        38        40        42        39        38        40        43
        40        43        46        47        40        43        46        48
        40        43        46        49        41        40        43        44
        41        40        43        45        41        40        43        46
        42        40        43        44        42        40        43        45
        42        40        43        46        43        46        49        50
        43        46        49        51        43        46        49        52
        44        43        46        47        44        43        46        48
        44        43        46        49        45        43        46        47
        45        43        46        48        45        43        46        49
        46        49        52        53        46        49        52        54
        46        49        52        55        47        46        49        50
        47        46        49        51        47        46        49        52
        48        46        49        50        48        46        49        51
        48        46        49        52        49        52        55        56
        49        52        55        57        49        52        55        58
        50        49        52        53        50        49        52        54
        50        49        52        55        51        49        52        53
        51        49        52        54        51        49        52        55
        52        55        58        59        52        55        58        60
        52        55        58        61        53        52        55        56
        53        52        55        57        53        52        55        58
        54        52        55        56        54        52        55        57
        54        52        55        58        55        58        61        62
        55        58        61        63        55        58        61        64
        56        55        58        59        56        55        58        60
        56        55        58        61        57        55        58        59
        57        55        58        60        57        55        58        61
        58        61        64        65        58        61        64        66
        58        61        64        67        59        58        61        62
        59        58        61        63        59        58        61        64
        60        58        61        62        60        58        61        63
        60        58        61        64        61        64        67        68
        61        64        67        69        61        64        67        70
        62        61        64        65        62        61        64        66
        62        61        64        67        63        61        64        65
        63        61        64        66        63        61        64        67
        64        67        70        71        64        67        70        72
        64        67        70        73        65        64        67        68
        65        64        67        69        65        64        67        70
        66        64        67        68        66        64        67        69
        66        64        67        70        67        70        73        74
        67        70        73        75        67        70        73        76
        68        67        70        71        68        67        70        72
        68        67        70        73        69        67        70        71
        69        67        70        72        69        67        70        73
        70        73        76        77        70        73        76        78
        70        73        76        79        71        70        73        74
        71        70        73        75        71        70        73        76
        72        70        73        74        72        70        73        75
        72        70        73        76        74        73        76        77
        74        73        76        78        74        73        76        79
        75        73        76        77        75        73        76        78
        75        73        76        79        80        82        85        86
        80        82        85        87        80        82        85        88
        81        80        82        83        81        80        82        84
        81        80        82        85        82        85        88        89
        82        85        88        90        82        85        88        91
        83        82        85        86        83        82        85        87
        83        82        85        88        84        82        85        86
        84        82        85        87        84        82        85        88
        85        88        91        92        85        88        91        93
        85        88        91        94        86        85        88        89
        86        85        88        90        86        85        88        91
        87        85        88        89        87        85        88        90
        87        85        88        91        88        91        94        95
        88        91        94        96        88        91        94        97
        89        88        91        92        89        88        91        93
        89        88        91        94        90        88        91        92
        90        88        91        93        90        88        91        94
        91        94        97        98        91        94        97        99
        91        94        97       100        92        91        94        95
        92        91        94        96        92        91        94        97
        93        91        94        95        93        91        94        96
        93        91        94        97        94        97       100       101
        94        97       100       102        94        97       100       103
        95        94        97        98        95        94        97        99
        95        94        97       100        96        94        97        98
        96        94        97        99        96        94        97       100
        97       100       103       104        97       100       103       105
        98        97       100       101        98        97       100       102
        98        97       100       103        99        97       100       101
        99        97       100       102        99        97       100       103
       100       103       105       106       100       103       105       107
       101       100       103       104       101       100       103       105
       102       100       103       104       102       100       103       105
       103       105       107       108       103       105       107       109
       103       105       107       110       104       103       105       106
       104       103       105       107       105       107       110       111
       105       107       110       112       105       107       110       113
       106       105       107       108       106       105       107       109
       106       105       107       110       107       110       113       114
       107       110       113       115       107       110       113       116
       108       107       110       111       108       107       110       112
       108       107       110       113       109       107       110       111
       109       107       110       112       109       107       110       113
       110       113       116       117       110       113       116       118
       110       113       116       119       111       110       113       114
       111       110       113       115       111       110       113       116
       112       110       113       114       112       110       113       115
       112       110       113       116       113       116       119       120
       113       116       119       121       113       116       119       122
       114       113       116       117       114       113       116       118
       114       113       116       119       115       113       116       117
       115       113       116       118       115       113       116       119
       116       119       122       123       116       119       122       124
       116       119       122       125       117       116       119       120
       117       116       119       121       117       116       119       122
       118       116       119       120       118       116       119       121
       118       116       119       122       119       122       125       126
       119       122       125       127       119       122       125       128
       120       119       122       123       120       119       122       124
       120       119       122       125       121       119       122       123
       121       119       122       124       121       119       122       125
       122       125       128       129       122       125       128       130
       122       125       128       131       123       122       125       126
       123       122       125       127       123       122       125       128
       124       122       125       126       124       122       125       127
       124       122       125       128       126       125       128       129
       126       125       128       130       126       125       128       131
       127       125       128       129       127       125       128       130
       127       125       128       131       132       136       138       139
       132       136       138       140       132       136       141       142
       132       136       141       143       132       136       141       147
       133       132       136       137       133       132       136       138
       133       132       136       141       134       132       136       137
       134       132       136       138       134       132       136       141
       135       132       136       137       135       132       136       138
       135       132       136       141       136       141       147       144
       137       136       138       139       137       136       138       140
       137       136       141       142       137       136       141       143
       137       136       141       147       138       136       141       142
       138       136       141       143       138       136       141       147
       139       138       136       141       140       138       136       141
       141       147       144       145       141       147       144       146
       141       147       144       148       142       141       147       144
       143       141       147       144       144       148       149       150
       144       148       149       151       144       148       149       152
       145       144       148       149       146       144       148       149
       147       144       148       149       148       149       152       153
       148       149       152       154       148       149       152       160
       149       152       154       155       149       152       160       161
       149       152       160       162       149       152       160       163
       150       149       152       153       150       149       152       154
       150       149       152       160       151       149       152       153
       151       149       152       154       151       149       152       160
       152       154       155       156       152       154       155       157
       152       160       163       164       153       152       154       155
       153       152       160       161       153       152       160       162
       153       152       160       163       154       152       160       161
       154       152       160       162       154       152       160       163
       154       155       157       158       154       155       157       159
       154       155       157       169       155       154       152       160
       155       157       169       170       155       157       169       171
       155       157       169       172       156       155       157       158
       156       155       157       159       156       155       157       169
       157       169       172       173       157       169       172       174
       157       169       172       175       158       157       169       170
       158       157       169       171       158       157       169       172
       159       157       169       170       159       157       169       171
       159       157       169       172       160       163       164       165
       160       163       164       166       161       160       163       164
       162       160       163       164       163       164       166       167
       163       164       166       168       163       164       166       216
       164       166       216       217       164       166       216       218
       164       166       216       219       165       164       166       167
       165       164       166       168       165       164       166       216
       166       216       219       220       166       216       219       221
       166       216       219       222       167       166       216       217
       167       166       216       218       167       166       216       219
       168       166       216       217       168       166       216       218
       168       166       216       219       169       172       175       176
       169       172       175       177       170       169       172       173
       170       169       172       174       170       169       172       175
       171       169       172       173       171       169       172       174
       171       169       172       175       172       175       177       178
       172       175       177       179       173       172       175       176
       173       172       175       177       174       172       175       176
       174       172       175       177       175       177       179       180
       175       177       179       181       175       177       179       182
       176       175       177       178       176       175       177       179
       177       179       182       183       177       179       182       184
       178       177       179       180       178       177       179       181
       178       177       179       182       179       182       184       185
       179       182       184       186       180       179       182       183
       180       179       182       184       181       179       182       183
       181       179       182       184       182       184       186       187
       182       184       186       188       182       184       186       189
       183       182       184       185       183       182       184       186
       184       186       189       190       184       186       189       191
       185       184       186       187       185       184       186       188
       185       184       186       189       186       189       191       192
       186       189       191       193       187       186       189       190
       187       186       189       191       188       186       189       190
       188       186       189       191       189       191       193       194
       189       191       193       195       189       191       193       196
       190       189       191       192       190       189       191       193
       191       193       196       197       191       193       196       198
       192       191       193       194       192       191       193       195
       192       191       193       196       193       196       198       199
       193       196       198       200       194       193       196       197
       194       193       196       198       195       193       196       197
       195       193       196       198       196       198       200       201
       196       198       200       202       196       198       200       203
       197       196       198       199       197       196       198       200
       198       200       203       204       198       200       203       205
       198       200       203       206       199       198       200       201
       199       198       200       202       199       198       200       203
       200       203       206       207       200       203       206       208
       200       203       206       209       201       200       203       204
       201       200       203       205       201       200       203       206
       202       200       203       204       202       200       203       205
       202       200       203       206       203       206       209       210
       203       206       209       211       203       206       209       212
       204       203       206       207       204       203       206       208
       204       203       206       209       205       203       206       207
       205       203       206       208       205       203       206       209
       206       209       212       213       206       209       212       214
       206       209       212       215       207       206       209       210
       207       206       209       211       207       206       209       212
       208       206       209       210       208       206       209       211
       208       206       209       212       210       209       212       213
       210       209       212       214       210       209       212       215
       211       209       212       213       211       209       212       214
       211       209       212       215       216       219       222       223
       216       219       222       224       216       219       222       225
       217       216       219       220       217       216       219       221
       217       216       219       222       218       216       219       220
       218       216       219       221       218       216       219       222
       219       222       225       226       219       222       225       227
       219       222       225       228       220       219       222       223
       220       219       222       224       220       219       222       225
       221       219       222       223       221       219       222       224
       221       219       222       225       222       225       228       229
       222       225       228       230       222       225       228       231
       223       222       225       226       223       222       225       227
       223       222       225       228       224       222       225       226
       224       222       225       227       224       222       225       228
       225       228       231       232       225       228       231       233
       225       228       231       234       226       225       228       229
       226       225       228       230       226       225       228       231
       227       225       228       229       227       225       228       230
       227       225       228       231       228       231       234       235
       228       231       234       236       228       231       234       237
       229       228       231       232       229       228       231       233
       229       228       231       234       230       228       231       232
       230       228       231       233       230       228       231       234
       231       234       237       238       231       234       237       239
       231       234       237       240       232       231       234       235
       232       231       234       236       232       231       234       237
       233       231       234       235       233       231       234       236
       233       231       234       237       234       237       240       241
       234       237       240       242       234       237       240       243
       235       234       237       238       235       234       237       239
       235       234       237       240       236       234       237       238
       236       234       237       239       236       234       237       240
       237       240       243       244       237       240       243       245
       237       240       243       246       238       237       240       241
       238       237       240       242       238       237       240       243
       239       237       240       241       239       237       240       242
       239       237       240       243       240       243       246       247
       240       243       246       248       240       243       246       249
       241       240       243       244       241       240       243       245
       241       240       243       246       242       240       243       244
       242       240       243       245       242       240       243       246
       243       246       249       250       243       246       249       251
       243       246       249       252       244       243       246       247
       244       243       246       248       244       243       246       249
       245       243       246       247       245       243       246       248
       245       243       246       249       246       249       252       253
       246       249       252       254       246       249       252       255
       247       246       249       250       247       246       249       251
       247       246       249       252       248       246       249       250
       248       246       249       251       248       246       249       252
       249       252       255       256       249       252       255       257
       249       252       255       258       250       249       252       253
       250       249       252       254       250       249       252       255
       251       249       252       253       251       249       252       254
       251       249       252       255       252       255       258       259
       252       255       258       260       252       255       258       261
       253       252       255       256       253       252       255       257
       253       252       255       258       254       252       255       256
       254       252       255       257       254       252       255       258
       255       258       261       262       255       258       261       263
       255       258       261       264       256       255       258       259
       256       255       258       260       256       255       258       261
       257       255       258       259       257       255       258       260
       257       255       258       261       259       258       261       262
       259       258       261       263       259       258       261       264
       260       258       261       262       260       258       261       263
       260       258       261       264       265       269       272       273
       265       269       272       274       265       269       272       278
       266       265       269       270       266       265       269       271
       266       265       269       272       267       265       269       270
       267       265       269       271       267       265       269       272
       268       265       269       270       268       265       269       271
       268       265       269       272       269       272       278       275
       270       269       272       273       270       269       272       274
       270       269       272       278       271       269       272       273
       271       269       272       274       271       269       272       278
       272       278       275       276       272       278       275       277
       272       278       275       279       273       272       278       275
       274       272       278       275       275       279       280       281
       275       279       280       282       275       279       280       283
       276       275       279       280       277       275       279       280
       278       275       279       280       279       280       283       284
       279       280       283       285       279       280       283       291
       280       283       285       286       280       283       291       292
       280       283       291       293       280       283       291       294
       281       280       283       284       281       280       283       285
       281       280       283       291       282       280       283       284
       282       280       283       285       282       280       283       291
       283       285       286       287       283       285       286       288
       283       291       294       295       284       283       285       286
       284       283       291       292       284       283       291       293
       284       283       291       294       285       283       291       292
       285       283       291       293       285       283       291       294
       285       286       288       289       285       286       288       290
       285       286       288       300       286       285       283       291
       286       288       300       301       286       288       300       302
       286       288       300       303       287       286       288       289
       287       286       288       290       287       286       288       300
       288       300       303       304       288       300       303       305
       288       300       303       306       289       288       300       301
       289       288       300       302       289       288       300       303
       290       288       300       301       290       288       300       302
       290       288       300       303       291       294       295       296
       291       294       295       297       292       291       294       295
       293       291       294       295       294       295       297       298
       294       295       297       299       294       295       297       347
       295       297       347       348       295       297       347       349
       295       297       347       350       296       295       297       298
       296       295       297       299       296       295       297       347
       297       347       350       351       297       347       350       352
       297       347       350       353       298       297       347       348
       298       297       347       349       298       297       347       350
       299       297       347       348       299       297       347       349
       299       297       347       350       300       303       306       307
       300       303       306       308       301       300       303       304
       301       300       303       305       301       300       303       306
       302       300       303       304       302       300       303       305
       302       300       303       306       303       306       308       309
       303       306       308       310       304       303       306       307
       304       303       306       308       305       303       306       307
       305       303       306       308       306       308       310       311
       306       308       310       312       306       308       310       313
       307       306       308       309       307       306       308       310
       308       310       313       314       308       310       313       315
       309       308       310       311       309       308       310       312
       309       308       310       313       310       313       315       316
       310       313       315       317       311       310       313       314
       311       310       313       315       312       310       313       314
       312       310       313       315       313       315       317       318
       313       315       317       319       313       315       317       320
       314       313       315       316       314       313       315       317
       315       317       320       321       315       317       320       322
       316       315       317       318       316       315       317       319
       316       315       317       320       317       320       322       323
       317       320       322       324       318       317       320       321
       318       317       320       322       319       317       320       321
       319       317       320       322       320       322       324       325
       320       322       324       326       320       322       324       327
       321       320       322       323       321       320       322       324
       322       324       327       328       322       324       327       329
       323       322       324       325       323       322       324       326
       323       322       324       327       324       327       329       330
       324       327       329       331       325       324       327       328
       325       324       327       329       326       324       327       328
       326       324       327       329       327       329       331       332
       327       329       331       333       327       329       331       334
       328       327       329       330       328       327       329       331
       329       331       334       335       329       331       334       336
       329       331       334       337       330       329       331       332
       330       329       331       333       330       329       331       334
       331       334       337       338       331       334       337       339
       331       334       337       340       332       331       334       335
       332       331       334       336       332       331       334       337
       333       331       334       335       333       331       334       336
       333       331       334       337       334       337       340       341
       334       337       340       342       334       337       340       343
       335       334       337       338       335       334       337       339
       335       334       337       340       336       334       337       338
       336       334       337       339       336       334       337       340
       337       340       343       344       337       340       343       345
       337       340       343       346       338       337       340       341
       338       337       340       342       338       337       340       343
       339       337       340       341       339       337       340       342
       339       337       340       343       341       340       343       344
       341       340       343       345       341       340       343       346
       342       340       343       344       342       340       343       345
       342       340       343       346       347       350       353       354
       347       350       353       355       347       350       353       356
       348       347       350       351       348       347       350       352
       348       347       350       353       349       347       350       351
       349       347       350       352       349       347       350       353
       350       353       356       357       350       353       356       358
       350       353       356       359       351       350       353       354
       351       350       353       355       351       350       353       356
       352       350       353       354       352       350       353       355
       352       350       353       356       353       356       359       360
       353       356       359       361       353       356       359       362
       354       353       356       357       354       353       356       358
       354       353       356       359       355       353       356       357
       355       353       356       358       355       353       356       359
       356       359       362       363       356       359       362       364
       356       359       362       365       357       356       359       360
       357       356       359       361       357       356       359       362
       358       356       359       360       358       356       359       361
       358       356       359       362       359       362       365       366
       359       362       365       367       359       362       365       368
       360       359       362       363       360       359       362       364
       360       359       362       365       361       359       362       363
       361       359       362       364       361       359       362       365
       362       365       368       369       362       365       368       370
       362       365       368       371       363       362       365       366
       363       362       365       367       363       362       365       368
       364       362       365       366       364       362       365       367
       364       362       365       368       365       368       371       372
       365       368       371       373       365       368       371       374
       366       365       368       369       366       365       368       370
       366       365       368       371       367       365       368       369
       367       365       368       370       367       365       368       371
       368       371       374       375       368       371       374       376
       368       371       374       377       369       368       371       372
       369       368       371       373       369       368       371       374
       370       368       371       372       370       368       371       373
       370       368       371       374       371       374       377       378
       371       374       377       379       371       374       377       380
       372       371       374       375       372       371       374       376
       372       371       374       377       373       371       374       375
       373       371       374       376       373       371       374       377
       374       377       380       381       374       377       380       382
       374       377       380       383       375       374       377       378
       375       374       377       379       375       374       377       380
       376       374       377       378       376       374       377       379
       376       374       377       380       377       380       383       384
       377       380       383       385       377       380       383       386
       378       377       380       381       378       377       380       382
       378       377       380       383       379       377       380       381
       379       377       380       382       379       377       380       383
       380       383       386       387       380       383       386       388
       380       383       386       389       381       380       383       384
       381       380       383       385       381       380       383       386
       382       380       383       384       382       380       383       385
       382       380       383       386       383       386       389       390
       383       386       389       391       383       386       389       392
       384       383       386       387       384       383       386       388
       384       383       386       389       385       383       386       387
       385       383       386       388       385       383       386       389
       386       389       392       393       386       389       392       394
       386       389       392       395       387       386       389       390
       387       386       389       391       387       386       389       392
       388       386       389       390       388       386       389       391
       388       386       389       392       390       389       392       393
       390       389       392       394       390       389       392       395
       391       389       392       393       391       389       392       394
       391       389       392       395       396       400       403       404
       396       400       403       434       396       442       439       434
       396       442       439       440       396       442       439       441
       397       396       398       399       397       396       400       401
       397       396       400       402       397       396       400       403
       397       396       442       439       397       396       442       443
       397       396       442       444       398       396       400       401
       398       396       400       402       398       396       400       403
       398       396       442       439       398       396       442       443
       398       396       442       444       399       398       396       400
       399       398       396       442       400       396       442       439
       400       396       442       443       400       396       442       444
       400       403       404       405       400       403       404       406
       400       403       434       432       400       403       434       435
       400       403       434       439       401       400       396       442
       401       400       403       404       401       400       403       434
       402       400       396       442       402       400       403       404
       402       400       403       434       403       400       396       442
       403       404       406       407       403       404       406       408
       403       404       406       409       403       434       432       409
       403       434       432       429       403       434       432       433
       403       434       435       436       403       434       435       437
       403       434       435       438       403       434       439       440
       403       434       439       441       403       434       439       442
       404       403       434       432       404       403       434       435
       404       403       434       439       404       406       409       410
       404       406       409       411       404       406       409       432
       405       404       403       434       405       404       406       407
       405       404       406       408       405       404       406       409
       406       404       403       434       406       409       411       412
       406       409       411       413       406       409       411       421
       406       409       432       429       406       409       432       433
       406       409       432       434       407       406       409       410
       407       406       409       411       407       406       409       432
       408       406       409       410       408       406       409       411
       408       406       409       432       409       411       413       414
       409       411       413       415       409       411       413       416
       409       411       421       419       409       411       421       422
       409       411       421       426       409       432       429       426
       409       432       429       430       409       432       429       431
       409       432       434       435       409       432       434       439
       410       409       411       412       410       409       411       413
       410       409       411       421       410       409       432       429
       410       409       432       433       410       409       432       434
       411       409       432       429       411       409       432       433
       411       409       432       434       411       413       416       417
       411       413       416       418       411       413       416       419
       411       421       419       416       411       421       419       420
       411       421       419       445       411       421       422       423
       411       421       422       424       411       421       422       425
       411       421       426       427       411       421       426       428
       411       421       426       429       412       411       409       432
       412       411       413       414       412       411       413       415
       412       411       413       416       412       411       421       419
       412       411       421       422       412       411       421       426
       413       411       409       432       413       411       421       419
       413       411       421       422       413       411       421       426
       413       416       419       420       413       416       419       421
       413       416       419       445       414       413       411       421
       414       413       416       417       414       413       416       418
       414       413       416       419       415       413       411       421
       415       413       416       417       415       413       416       418
       415       413       416       419       416       413       411       421
       416       419       421       422       416       419       421       426
       416       419       445       446       416       419       445       447
       416       419       445       451       417       416       419       420
       417       416       419       421       417       416       419       445
       418       416       419       420       418       416       419       421
       418       416       419       445       419       421       422       423
       419       421       422       424       419       421       422       425
       419       421       426       427       419       421       426       428
       419       421       426       429       419       445       447       448
       419       445       447       449       419       445       447       450
       419       445       451       452       419       445       451       453
       419       445       451       454       420       419       421       422
       420       419       421       426       420       419       445       446
       420       419       445       447       420       419       445       451
       421       411       409       432       421       419       445       446
       421       419       445       447       421       419       445       451
       421       426       429       430       421       426       429       431
       421       426       429       432       422       421       419       445
       422       421       426       427       422       421       426       428
       422       421       426       429       423       422       421       426
       424       422       421       426       425       422       421       426
       426       421       419       445       426       429       432       433
       426       429       432       434       427       426       429       430
       427       426       429       431       427       426       429       432
       428       426       429       430       428       426       429       431
       428       426       429       432       429       432       434       435
       429       432       434       439       430       429       432       433
       430       429       432       434       431       429       432       433
       431       429       432       434       432       434       435       436
       432       434       435       437       432       434       435       438
       432       434       439       440       432       434       439       441
       432       434       439       442       433       432       434       435
       433       432       434       439       434       439       442       443
       434       439       442       444       435       434       439       440
       435       434       439       441       435       434       439       442
       436       435       434       439       437       435       434       439
       438       435       434       439       440       439       442       443
       440       439       442       444       441       439       442       443
       441       439       442       444       445       451       454       455
       445       451       454       456       445       451       454       457
       446       445       447       448       446       445       447       449
       446       445       447       450       446       445       451       452
       446       445       451       453       446       445       451       454
       447       445       451       452       447       445       451       453
       447       445       451       454       448       447       445       451
       449       447       445       451       450       447       445       451
       451       454       457       458       451       454       457       459
       451       454       457       460       452       451       454       455
       452       451       454       456       452       451       454       457
       453       451       454       455       453       451       454       456
       453       451       454       457       454       457       460       461
       454       457       460       462       454       457       460       466
       455       454       457       458       455       454       457       459
       455       454       457       460       456       454       457       458
       456       454       457       459       456       454       457       460
       457       460       462       463       457       460       462       464
       457       460       462       465       457       460       466       467
       457       460       466       468       457       460       466       469
       458       457       460       461       458       457       460       462
       458       457       460       466       459       457       460       461
       459       457       460       462       459       457       460       466
       461       460       462       463       461       460       462       464
       461       460       462       465       461       460       466       467
       461       460       466       468       461       460       466       469
       462       460       466       467       462       460       466       468
       462       460       466       469       463       462       460       466
       464       462       460       466       465       462       460       466
       470       474       477       478       470       474       477       479
       470       474       477       483       471       470       474       475
       471       470       474       476       471       470       474       477
       472       470       474       475       472       470       474       476
       472       470       474       477       473       470       474       475
       473       470       474       476       473       470       474       477
       474       477       483       480       475       474       477       478
       475       474       477       479       475       474       477       483
       476       474       477       478       476       474       477       479
       476       474       477       483       477       483       480       481
       477       483       480       482       477       483       480       484
       478       477       483       480       479       477       483       480
       480       484       485       486       480       484       485       487
       480       484       485       488       481       480       484       485
       482       480       484       485       483       480       484       485
       484       485       488       489       484       485       488       490
       484       485       488       496       485       488       490       491
       485       488       496       497       485       488       496       498
       485       488       496       499       486       485       488       489
       486       485       488       490       486       485       488       496
       487       485       488       489       487       485       488       490
       487       485       488       496       488       490       491       492
       488       490       491       493       488       496       499       500
       489       488       490       491       489       488       496       497
       489       488       496       498       489       488       496       499
       490       488       496       497       490       488       496       498
       490       488       496       499       490       491       493       494
       490       491       493       495       490       491       493       505
       491       490       488       496       491       493       505       506
       491       493       505       507       491       493       505       508
       492       491       493       494       492       491       493       495
       492       491       493       505       493       505       508       509
       493       505       508       510       493       505       508       511
       494       493       505       506       494       493       505       507
       494       493       505       508       495       493       505       506
       495       493       505       507       495       493       505       508
       496       499       500       501       496       499       500       502
       497       496       499       500       498       496       499       500
       499       500       502       503       499       500       502       504
       499       500       502       552       500       502       552       553
       500       502       552       554       500       502       552       555
       501       500       502       503       501       500       502       504
       501       500       502       552       502       552       555       556
       502       552       555       557       502       552       555       558
       503       502       552       553       503       502       552       554
       503       502       552       555       504       502       552       553
       504       502       552       554       504       502       552       555
       505       508       511       512       505       508       511       513
       506       505       508       509       506       505       508       510
       506       505       508       511       507       505       508       509
       507       505       508       510       507       505       508       511
       508       511       513       514       508       511       513       515
       509       508       511       512       509       508       511       513
       510       508       511       512       510       508       511       513
       511       513       515       516       511       513       515       517
       511       513       515       518       512       511       513       514
       512       511       513       515       513       515       518       519
       513       515       518       520       514       513       515       516
       514       513       515       517       514       513       515       518
       515       518       520       521       515       518       520       522
       516       515       518       519       516       515       518       520
       517       515       518       519       517       515       518       520
       518       520       522       523       518       520       522       524
       518       520       522       525       519       518       520       521
       519       518       520       522       520       522       525       526
       520       522       525       527       521       520       522       523
       521       520       522       524       521       520       522       525
       522       525       527       528       522       525       527       529
       523       522       525       526       523       522       525       527
       524       522       525       526       524       522       525       527
       525       527       529       530       525       527       529       531
       525       527       529       532       526       525       527       528
       526       525       527       529       527       529       532       533
       527       529       532       534       528       527       529       530
       528       527       529       531       528       527       529       532
       529       532       534       535       529       532       534       536
       530       529       532       533       530       529       532       534
       531       529       532       533       531       529       532       534
       532       534       536       537       532       534       536       538
       532       534       536       539       533       532       534       535
       533       532       534       536       534       536       539       540
       534       536       539       541       534       536       539       542
       535       534       536       537       535       534       536       538
       535       534       536       539       536       539       542       543
       536       539       542       544       536       539       542       545
       537       536       539       540       537       536       539       541
       537       536       539       542       538       536       539       540
       538       536       539       541       538       536       539       542
       539       542       545       546       539       542       545       547
       539       542       545       548       540       539       542       543
       540       539       542       544       540       539       542       545
       541       539       542       543       541       539       542       544
       541       539       542       545       542       545       548       549
       542       545       548       550       542       545       548       551
       543       542       545       546       543       542       545       547
       543       542       545       548       544       542       545       546
       544       542       545       547       544       542       545       548
       546       545       548       549       546       545       548       550
       546       545       548       551       547       545       548       549
       547       545       548       550       547       545       548       551
       552       555       558       559       552       555       558       560
       552       555       558       561       553       552       555       556
       553       552       555       557       553       552       555       558
       554       552       555       556       554       552       555       557
       554       552       555       558       555       558       561       562
       555       558       561       563       555       558       561       564
       556       555       558       559       556       555       558       560
       556       555       558       561       557       555       558       559
       557       555       558       560       557       555       558       561
       558       561       564       565       558       561       564       566
       558       561       564       567       559       558       561       562
       559       558       561       563       559       558       561       564
       560       558       561       562       560       558       561       563
       560       558       561       564       561       564       567       568
       561       564       567       569       561       564       567       570
       562       561       564       565       562       561       564       566
       562       561       564       567       563       561       564       565
       563       561       564       566       563       561       564       567
       564       567       570       571       564       567       570       572
       564       567       570       573       565       564       567       568
       565       564       567       569       565       564       567       570
       566       564       567       568       566       564       567       569
       566       564       567       570       567       570       573       574
       567       570       573       575       567       570       573       576
       568       567       570       571       568       567       570       572
       568       567       570       573       569       567       570       571
       569       567       570       572       569       567       570       573
       570       573       576       577       570       573       576       578
       570       573       576       579       571       570       573       574
       571       570       573       575       571       570       573       576
       572       570       573       574       572       570       573       575
       572       570       573       576       573       576       579       580
       573       576       579       581       573       576       579       582
       574       573       576       577       574       573       576       578
       574       573       576       579       575       573       576       577
       575       573       576       578       575       573       576       579
       576       579       582       583       576       579       582       584
       576       579       582       585       577       576       579       580
       577       576       579       581       577       576       579       582
       578       576       579       580       578       576       579       581
       578       576       579       582       579       582       585       586
       579       582       585       587       579       582       585       588
       580       579       582       583       580       579       582       584
       580       579       582       585       581       579       582       583
       581       579       582       584       581       579       582       585
       582       585       588       589       582       585       588       590
       582       585       588       591       583       582       585       586
       583       582       585       587       583       582       585       588
       584       582       585       586       584       582       585       587
       584       582       585       588       585       588       591       592
       585       588       591       593       585       588       591       594
       586       585       588       589       586       585       588       590
       586       585       588       591       587       585       588       589
       587       585       588       590       587       585       588       591
       588       591       594       595       588       591       594       596
       588       591       594       597       589       588       591       592
       589       588       591       593       589       588       591       594
       590       588       591       592       590       588       591       593
       590       588       591       594       591       594       597       598
       591       594       597       599       591       594       597       600
       592       591       594       595       592       591       594       596
       592       591       594       597       593       591       594       595
       593       591       594       596       593       591       594       597
       595       594       597       598       595       594       597       599
       595       594       597       600       596       594       597       598
       596       594       597       599       596       594       597       600
       601       605       608       609       601       605       608       639
       601       647       644       639       601       647       644       645
       601       647       644       646       602       601       603       604
       602       601       605       606       602       601       605       607
       602       601       605       608       602       601       647       644
       602       601       647       648       602       601       647       649
       603       601       605       606       603       601       605       607
       603       601       605       608       603       601       647       644
       603       601       647       648       603       601       647       649
       604       603       601       605       604       603       601       647
       605       601       647       644       605       601       647       648
       605       601       647       649       605       608       609       610
       605       608       609       611       605       608       639       637
       605       608       639       640       605       608       639       644
       606       605       601       647       606       605       608       609
       606       605       608       639       607       605       601       647
       607       605       608       609       607       605       608       639
       608       605       601       647       608       609       611       612
       608       609       611       613       608       609       611       614
       608       639       637       614       608       639       637       634
       608       639       637       638       608       639       640       641
       608       639       640       642       608       639       640       643
       608       639       644       645       608       639       644       646
       608       639       644       647       609       608       639       637
       609       608       639       640       609       608       639       644
       609       611       614       615       609       611       614       616
       609       611       614       637       610       609       608       639
       610       609       611       612       610       609       611       613
       610       609       611       614       611       609       608       639
       611       614       616       617       611       614       616       618
       611       614       616       626       611       614       637       634
       611       614       637       638       611       614       637       639
       612       611       614       615       612       611       614       616
       612       611       614       637       613       611       614       615
       613       611       614       616       613       611       614       637
       614       616       618       619       614       616       618       620
       614       616       618       621       614       616       626       624
       614       616       626       627       614       616       626       631
       614       637       634       631       614       637       634       635
       614       637       634       636       614       637       639       640
       614       637       639       644       615       614       616       617
       615       614       616       618       615       614       616       626
       615       614       637       634       615       614       637       638
       615       614       637       639       616       614       637       634
       616       614       637       638       616       614       637       639
       616       618       621       622       616       618       621       623
       616       618       621       624       616       626       624       621
       616       626       624       625       616       626       624       650
       616       626       627       628       616       626       627       629
       616       626       627       630       616       626       631       632
       616       626       631       633       616       626       631       634
       617       616       614       637       617       616       618       619
       617       616       618       620       617       616       618       621
       617       616       626       624       617       616       626       627
       617       616       626       631       618       616       614       637
       618       616       626       624       618       616       626       627
       618       616       626       631       618       621       624       625
       618       621       624       626       618       621       624       650
       619       618       616       626       619       618       621       622
       619       618       621       623       619       618       621       624
       620       618       616       626       620       618       621       622
       620       618       621       623       620       618       621       624
       621       618       616       626       621       624       626       627
       621       624       626       631       621       624       650       651
       621       624       650       652       621       624       650       656
       622       621       624       625       622       621       624       626
       622       621       624       650       623       621       624       625
       623       621       624       626       623       621       624       650
       624       626       627       628       624       626       627       629
       624       626       627       630       624       626       631       632
       624       626       631       633       624       626       631       634
       624       650       652       653       624       650       652       654
       624       650       652       655       624       650       656       657
       624       650       656       658       624       650       656       659
       625       624       626       627       625       624       626       631
       625       624       650       651       625       624       650       652
       625       624       650       656       626       616       614       637
       626       624       650       651       626       624       650       652
       626       624       650       656       626       631       634       635
       626       631       634       636       626       631       634       637
       627       626       624       650       627       626       631       632
       627       626       631       633       627       626       631       634
       628       627       626       631       629       627       626       631
       630       627       626       631       631       626       624       650
       631       634       637       638       631       634       637       639
       632       631       634       635       632       631       634       636
       632       631       634       637       633       631       634       635
       633       631       634       636       633       631       634       637
       634       637       639       640       634       637       639       644
       635       634       637       638       635       634       637       639
       636       634       637       638       636       634       637       639
       637       639       640       641       637       639       640       642
       637       639       640       643       637       639       644       645
       637       639       644       646       637       639       644       647
       638       637       639       640       638       637       639       644
       639       644       647       648       639       644       647       649
       640       639       644       645       640       639       644       646
       640       639       644       647       641       640       639       644
       642       640       639       644       643       640       639       644
       645       644       647       648       645       644       647       649
       646       644       647       648       646       644       647       649
       650       656       659       660       650       656       659       661
       650       656       659       662       651       650       652       653
       651       650       652       654       651       650       652       655
       651       650       656       657       651       650       656       658
       651       650       656       659       652       650       656       657
       652       650       656       658       652       650       656       659
       653       652       650       656       654       652       650       656
       655       652       650       656       656       659       662       663
       656       659       662       664       656       659       662       665
       657       656       659       660       657       656       659       661
       657       656       659       662       658       656       659       660
       658       656       659       661       658       656       659       662
       659       662       665       666       659       662       665       667
       659       662       665       671       660       659       662       663
       660       659       662       664       660       659       662       665
       661       659       662       663       661       659       662       664
       661       659       662       665       662       665       667       668
       662       665       667       669       662       665       667       670
       662       665       671       672       662       665       671       673
       662       665       671       674       663       662       665       666
       663       662       665       667       663       662       665       671
       664       662       665       666       664       662       665       667
       664       662       665       671       666       665       667       668
       666       665       667       669       666       665       667       670
       666       665       671       672       666       665       671       673
       666       665       671       674       667       665       671       672
       667       665       671       673       667       665       671       674
       668       667       665       671       669       667       665       671
       670       667       665       671       675       688       691       692
       675       688       691       693       675       688       691       698
       676       675       680       681       676       675       680       682
       676       675       680       683       676       675       684       685
       676       675       684       686       676       675       684       687
       676       675       688       689       676       675       688       690
       676       675       688       691       677       676       675       680
       677       676       675       684       677       676       675       688
       678       676       675       680       678       676       675       684
       678       676       675       688       679       676       675       680
       679       676       675       684       679       676       675       688
       680       675       684       685       680       675       684       686
       680       675       684       687       680       675       688       689
       680       675       688       690       680       675       688       691
       681       680       675       684       681       680       675       688
       682       680       675       684       682       680       675       688
       683       680       675       684       683       680       675       688
       684       675       688       689       684       675       688       690
       684       675       688       691       685       684       675       688
       686       684       675       688       687       684       675       688
       688       691       698       694       689       688       691       692
       689       688       691       693       689       688       691       698
       690       688       691       692       690       688       691       693
       690       688       691       698       691       698       694       695
       691       698       694       696       691       698       694       697
       692       691       698       694       693       691       698       694
       694       697       699       700       694       697       699       701
       694       697       699       704       695       694       697       699
       696       694       697       699       697       699       704       702
       697       699       704       705       697       699       704       706
       698       694       697       699       699       704       702       703
       699       704       702       754       699       704       706       707
       699       704       706       708       699       704       706       710
       700       699       704       702       700       699       704       705
       700       699       704       706       701       699       704       702
       701       699       704       705       701       699       704       706
       702       704       706       707       702       704       706       708
       702       704       706       710       702       754       756       757
       702       754       756       758       702       754       756       759
       703       702       704       705       703       702       704       706
       703       702       754       755       703       702       754       756
       704       702       754       755       704       702       754       756
       704       706       708       709       704       706       710       711
       704       706       710       712       705       704       702       754
       705       704       706       707       705       704       706       708
       705       704       706       710       706       704       702       754
       706       710       712       713       706       710       712       714
       707       706       708       709       707       706       710       711
       707       706       710       712       708       706       710       711
       708       706       710       712       709       708       706       710
       710       712       714       715       710       712       714       716
       710       712       714       717       711       710       712       713
       711       710       712       714       712       714       717       718
       712       714       717       719       712       714       717       720
       713       712       714       715       713       712       714       716
       713       712       714       717       714       717       720       721
       714       717       720       722       714       717       720       723
       715       714       717       718       715       714       717       719
       715       714       717       720       716       714       717       718
       716       714       717       719       716       714       717       720
       717       720       723       724       717       720       723       725
       717       720       723       726       718       717       720       721
       718       717       720       722       718       717       720       723
       719       717       720       721       719       717       720       722
       719       717       720       723       720       723       726       727
       720       723       726       728       720       723       726       729
       721       720       723       724       721       720       723       725
       721       720       723       726       722       720       723       724
       722       720       723       725       722       720       723       726
       723       726       729       730       723       726       729       731
       723       726       729       732       724       723       726       727
       724       723       726       728       724       723       726       729
       725       723       726       727       725       723       726       728
       725       723       726       729       726       729       732       733
       726       729       732       734       726       729       732       735
       727       726       729       730       727       726       729       731
       727       726       729       732       728       726       729       730
       728       726       729       731       728       726       729       732
       729       732       735       736       729       732       735       737
       729       732       735       738       730       729       732       733
       730       729       732       734       730       729       732       735
       731       729       732       733       731       729       732       734
       731       729       732       735       732       735       738       739
       732       735       738       740       732       735       738       741
       733       732       735       736       733       732       735       737
       733       732       735       738       734       732       735       736
       734       732       735       737       734       732       735       738
       735       738       741       742       735       738       741       743
       735       738       741       744       736       735       738       739
       736       735       738       740       736       735       738       741
       737       735       738       739       737       735       738       740
       737       735       738       741       738       741       744       745
       738       741       744       746       738       741       744       747
       739       738       741       742       739       738       741       743
       739       738       741       744       740       738       741       742
       740       738       741       743       740       738       741       744
       741       744       747       748       741       744       747       749
       741       744       747       750       742       741       744       745
       742       741       744       746       742       741       744       747
       743       741       744       745       743       741       744       746
       743       741       744       747       744       747       750       751
       744       747       750       752       744       747       750       753
       745       744       747       748       745       744       747       749
       745       744       747       750       746       744       747       748
       746       744       747       749       746       744       747       750
       748       747       750       751       748       747       750       752
       748       747       750       753       749       747       750       751
       749       747       750       752       749       747       750       753
       754       756       759       760       754       756       759       761
       754       756       759       762       755       754       756       757
       755       754       756       758       755       754       756       759
       756       759       762       763       756       759       762       764
       756       759       762       765       757       756       759       760
       757       756       759       761       757       756       759       762
       758       756       759       760       758       756       759       761
       758       756       759       762       759       762       765       766
       759       762       765       767       759       762       765       768
       760       759       762       763       760       759       762       764
       760       759       762       765       761       759       762       763
       761       759       762       764       761       759       762       765
       762       765       768       769       762       765       768       770
       762       765       768       771       763       762       765       766
       763       762       765       767       763       762       765       768
       764       762       765       766       764       762       765       767
       764       762       765       768       765       768       771       772
       765       768       771       773       765       768       771       774
       766       765       768       769       766       765       768       770
       766       765       768       771       767       765       768       769
       767       765       768       770       767       765       768       771
       768       771       774       775       768       771       774       776
       768       771       774       777       769       768       771       772
       769       768       771       773       769       768       771       774
       770       768       771       772       770       768       771       773
       770       768       771       774       771       774       777       778
       771       774       777       779       772       771       774       775
       772       771       774       776       772       771       774       777
       773       771       774       775       773       771       774       776
       773       771       774       777       774       777       779       780
       774       777       779       781       775       774       777       778
       775       774       777       779       776       774       777       778
       776       774       777       779       777       779       781       782
       777       779       781       783       777       779       781       784
       778       777       779       780       778       777       779       781
       779       781       784       785       779       781       784       786
       779       781       784       787       780       779       781       782
       780       779       781       783       780       779       781       784
       781       784       787       788       781       784       787       789
       781       784       787       790       782       781       784       785
       782       781       784       786       782       781       784       787
       783       781       784       785       783       781       784       786
       783       781       784       787       784       787       790       791
       784       787       790       792       784       787       790       793
       785       784       787       788       785       784       787       789
       785       784       787       790       786       784       787       788
       786       784       787       789       786       784       787       790
       787       790       793       794       787       790       793       795
       787       790       793       796       788       787       790       791
       788       787       790       792       788       787       790       793
       789       787       790       791       789       787       790       792
       789       787       790       793       790       793       796       797
       790       793       796       798       790       793       796       799
       791       790       793       794       791       790       793       795
       791       790       793       796       792       790       793       794
       792       790       793       795       792       790       793       796
       793       796       799       800       793       796       799       801
       793       796       799       802       794       793       796       797
       794       793       796       798       794       793       796       799
       795       793       796       797       795       793       796       798
       795       793       796       799       796       799       802       803
       796       799       802       804       796       799       802       805
       797       796       799       800       797       796       799       801
       797       796       799       802       798       796       799       800
       798       796       799       801       798       796       799       802
       800       799       802       803       800       799       802       804
       800       799       802       805       801       799       802       803
       801       799       802       804       801       799       802       805
       806       810       813       814       806       810       813       844
       806       852       849       844       806       852       849       850
       806       852       849       851       807       806       808       809
       807       806       810       811       807       806       810       812
       807       806       810       813       807       806       852       849
       807       806       852       853       807       806       852       854
       808       806       810       811       808       806       810       812
       808       806       810       813       808       806       852       849
       808       806       852       853       808       806       852       854
       809       808       806       810       809       808       806       852
       810       806       852       849       810       806       852       853
       810       806       852       854       810       813       814       815
       810       813       814       816       810       813       844       842
       810       813       844       845       810       813       844       849
       811       810       806       852       811       810       813       814
       811       810       813       844       812       810       806       852
       812       810       813       814       812       810       813       844
       813       810       806       852       813       814       816       817
       813       814       816       818       813       814       816       819
       813       844       842       819       813       844       842       839
       813       844       842       843       813       844       845       846
       813       844       845       847       813       844       845       848
       813       844       849       850       813       844       849       851
       813       844       849       852       814       813       844       842
       814       813       844       845       814       813       844       849
       814       816       819       820       814       816       819       821
       814       816       819       842       815       814       813       844
       815       814       816       817       815       814       816       818
       815       814       816       819       816       814       813       844
       816       819       821       822       816       819       821       823
       816       819       821       831       816       819       842       839
       816       819       842       843       816       819       842       844
       817       816       819       820       817       816       819       821
       817       816       819       842       818       816       819       820
       818       816       819       821       818       816       819       842
       819       821       823       824       819       821       823       825
       819       821       823       826       819       821       831       829
       819       821       831       832       819       821       831       836
       819       842       839       836       819       842       839       840
       819       842       839       841       819       842       844       845
       819       842       844       849       820       819       821       822
       820       819       821       823       820       819       821       831
       820       819       842       839       820       819       842       843
       820       819       842       844       821       819       842       839
       821       819       842       843       821       819       842       844
       821       823       826       827       821       823       826       828
       821       823       826       829       821       831       829       826
       821       831       829       830       821       831       829       855
       821       831       832       833       821       831       832       834
       821       831       832       835       821       831       836       837
       821       831       836       838       821       831       836       839
       822       821       819       842       822       821       823       824
       822       821       823       825       822       821       823       826
       822       821       831       829       822       821       831       832
       822       821       831       836       823       821       819       842
       823       821       831       829       823       821       831       832
       823       821       831       836       823       826       829       830
       823       826       829       831       823       826       829       855
       824       823       821       831       824       823       826       827
       824       823       826       828       824       823       826       829
       825       823       821       831       825       823       826       827
       825       823       826       828       825       823       826       829
       826       823       821       831       826       829       831       832
       826       829       831       836       826       829       855       856
       826       829       855       857       826       829       855       861
       827       826       829       830       827       826       829       831
       827       826       829       855       828       826       829       830
       828       826       829       831       828       826       829       855
       829       831       832       833       829       831       832       834
       829       831       832       835       829       831       836       837
       829       831       836       838       829       831       836       839
       829       855       857       858       829       855       857       859
       829       855       857       860       829       855       861       862
       829       855       861       863       829       855       861       864
       830       829       831       832       830       829       831       836
       830       829       855       856       830       829       855       857
       830       829       855       861       831       821       819       842
       831       829       855       856       831       829       855       857
       831       829       855       861       831       836       839       840
       831       836       839       841       831       836       839       842
       832       831       829       855       832       831       836       837
       832       831       836       838       832       831       836       839
       833       832       831       836       834       832       831       836
       835       832       831       836       836       831       829       855
       836       839       842       843       836       839       842       844
       837       836       839       840       837       836       839       841
       837       836       839       842       838       836       839       840
       838       836       839       841       838       836       839       842
       839       842       844       845       839       842       844       849
       840       839       842       843       840       839       842       844
       841       839       842       843       841       839       842       844
       842       844       845       846       842       844       845       847
       842       844       845       848       842       844       849       850
       842       844       849       851       842       844       849       852
       843       842       844       845       843       842       844       849
       844       849       852       853       844       849       852       854
       845       844       849       850       845       844       849       851
       845       844       849       852       846       845       844       849
       847       845       844       849       848       845       844       849
       850       849       852       853       850       849       852       854
       851       849       852       853       851       849       852       854
       855       861       864       865       855       861       864       866
       855       861       864       867       856       855       857       858
       856       855       857       859       856       855       857       860
       856       855       861       862       856       855       861       863
       856       855       861       864       857       855       861       862
       857       855       861       863       857       855       861       864
       858       857       855       861       859       857       855       861
       860       857       855       861       861       864       867       868
       861       864       867       869       861       864       867       870
       862       861       864       865       862       861       864       866
       862       861       864       867       863       861       864       865
       863       861       864       866       863       861       864       867
       864       867       870       871       864       867       870       872
       864       867       870       876       865       864       867       868
       865       864       867       869       865       864       867       870
       866       864       867       868       866       864       867       869
       866       864       867       870       867       870       872       873
       867       870       872       874       867       870       872       875
       867       870       876       877       867       870       876       878
       867       870       876       879       868       867       870       871
       868       867       870       872       868       867       870       876
       869       867       870       871       869       867       870       872
       869       867       870       876       871       870       872       873
       871       870       872       874       871       870       872       875
       871       870       876       877       871       870       876       878
       871       870       876       879       872       870       876       877
       872       870       876       878       872       870       876       879
       873       872       870       876       874       872       870       876
       875       872       870       876       880       893       896       897
       880       893       896       898       880       893       896       903
       881       880       885       886       881       880       885       887
       881       880       885       888       881       880       889       890
       881       880       889       891       881       880       889       892
       881       880       893       894       881       880       893       895
       881       880       893       896       882       881       880       885
       882       881       880       889       882       881       880       893
       883       881       880       885       883       881       880       889
       883       881       880       893       884       881       880       885
       884       881       880       889       884       881       880       893
       885       880       889       890       885       880       889       891
       885       880       889       892       885       880       893       894
       885       880       893       895       885       880       893       896
       886       885       880       889       886       885       880       893
       887       885       880       889       887       885       880       893
       888       885       880       889       888       885       880       893
       889       880       893       894       889       880       893       895
       889       880       893       896       890       889       880       893
       891       889       880       893       892       889       880       893
       893       896       903       899       894       893       896       897
       894       893       896       898       894       893       896       903
       895       893       896       897       895       893       896       898
       895       893       896       903       896       903       899       900
       896       903       899       901       896       903       899       902
       897       896       903       899       898       896       903       899
       899       902       904       905       899       902       904       906
       899       902       904       909       900       899       902       904
       901       899       902       904       902       904       909       907
       902       904       909       910       902       904       909       911
       903       899       902       904       904       909       907       908
       904       909       907       959       904       909       911       912
       904       909       911       913       904       909       911       915
       905       904       909       907       905       904       909       910
       905       904       909       911       906       904       909       907
       906       904       909       910       906       904       909       911
       907       909       911       912       907       909       911       913
       907       909       911       915       907       959       961       962
       907       959       961       963       907       959       961       964
       908       907       909       910       908       907       909       911
       908       907       959       960       908       907       959       961
       909       907       959       960       909       907       959       961
       909       911       913       914       909       911       915       916
       909       911       915       917       910       909       907       959
       910       909       911       912       910       909       911       913
       910       909       911       915       911       909       907       959
       911       915       917       918       911       915       917       919
       912       911       913       914       912       911       915       916
       912       911       915       917       913       911       915       916
       913       911       915       917       914       913       911       915
       915       917       919       920       915       917       919       921
       915       917       919       922       916       915       917       918
       916       915       917       919       917       919       922       923
       917       919       922       924       917       919       922       925
       918       917       919       920       918       917       919       921
       918       917       919       922       919       922       925       926
       919       922       925       927       919       922       925       928
       920       919       922       923       920       919       922       924
       920       919       922       925       921       919       922       923
       921       919       922       924       921       919       922       925
       922       925       928       929       922       925       928       930
       922       925       928       931       923       922       925       926
       923       922       925       927       923       922       925       928
       924       922       925       926       924       922       925       927
       924       922       925       928       925       928       931       932
       925       928       931       933       925       928       931       934
       926       925       928       929       926       925       928       930
       926       925       928       931       927       925       928       929
       927       925       928       930       927       925       928       931
       928       931       934       935       928       931       934       936
       928       931       934       937       929       928       931       932
       929       928       931       933       929       928       931       934
       930       928       931       932       930       928       931       933
       930       928       931       934       931       934       937       938
       931       934       937       939       931       934       937       940
       932       931       934       935       932       931       934       936
       932       931       934       937       933       931       934       935
       933       931       934       936       933       931       934       937
       934       937       940       941       934       937       940       942
       934       937       940       943       935       934       937       938
       935       934       937       939       935       934       937       940
       936       934       937       938       936       934       937       939
       936       934       937       940       937       940       943       944
       937       940       943       945       937       940       943       946
       938       937       940       941       938       937       940       942
       938       937       940       943       939       937       940       941
       939       937       940       942       939       937       940       943
       940       943       946       947       940       943       946       948
       940       943       946       949       941       940       943       944
       941       940       943       945       941       940       943       946
       942       940       943       944       942       940       943       945
       942       940       943       946       943       946       949       950
       943       946       949       951       943       946       949       952
       944       943       946       947       944       943       946       948
       944       943       946       949       945       943       946       947
       945       943       946       948       945       943       946       949
       946       949       952       953       946       949       952       954
       946       949       952       955       947       946       949       950
       947       946       949       951       947       946       949       952
       948       946       949       950       948       946       949       951
       948       946       949       952       949       952       955       956
       949       952       955       957       949       952       955       958
       950       949       952       953       950       949       952       954
       950       949       952       955       951       949       952       953
       951       949       952       954       951       949       952       955
       953       952       955       956       953       952       955       957
       953       952       955       958       954       952       955       956
       954       952       955       957       954       952       955       958
       959       961       964       965       959       961       964       966
       959       961       964       967       960       959       961       962
       960       959       961       963       960       959       961       964
       961       964       967       968       961       964       967       969
       961       964       967       970       962       961       964       965
       962       961       964       966       962       961       964       967
       963       961       964       965       963       961       964       966
       963       961       964       967       964       967       970       971
       964       967       970       972       964       967       970       973
       965       964       967       968       965       964       967       969
       965       964       967       970       966       964       967       968
       966       964       967       969       966       964       967       970
       967       970       973       974       967       970       973       975
       967       970       973       976       968       967       970       971
       968       967       970       972       968       967       970       973
       969       967       970       971       969       967       970       972
       969       967       970       973       970       973       976       977
       970       973       976       978       970       973       976       979
       971       970       973       974       971       970       973       975
       971       970       973       976       972       970       973       974
       972       970       973       975       972       970       973       976
       973       976       979       980       973       976       979       981
       973       976       979       982       974       973       976       977
       974       973       976       978       974       973       976       979
       975       973       976       977       975       973       976       978
       975       973       976       979       976       979       982       983
       976       979       982       984       977       976       979       980
       977       976       979       981       977       976       979       982
       978       976       979       980       978       976       979       981
       978       976       979       982       979       982       984       985
       979       982       984       986       980       979       982       983
       980       979       982       984       981       979       982       983
       981       979       982       984       982       984       986       987
       982       984       986       988       982       984       986       989
       983       982       984       985       983       982       984       986
       984       986       989       990       984       986       989       991
       984       986       989       992       985       984       986       987
       985       984       986       988       985       984       986       989
       986       989       992       993       986       989       992       994
       986       989       992       995       987       986       989       990
       987       986       989       991       987       986       989       992
       988       986       989       990       988       986       989       991
       988       986       989       992       989       992       995       996
       989       992       995       997       989       992       995       998
       990       989       992       993       990       989       992       994
       990       989       992       995       991       989       992       993
       991       989       992       994       991       989       992       995
       992       995       998       999       992       995       998      1000
       992       995       998      1001       993       992       995       996
       993       992       995       997       993       992       995       998
       994       992       995       996       994       992       995       997
       994       992       995       998       995       998      1001      1002
       995       998      1001      1003       995       998      1001      1004
       996       995       998       999       996       995       998      1000
       996       995       998      1001       997       995       998       999
       997       995       998      1000       997       995       998      1001
       998      1001      1004      1005       998      1001      1004      1006
       998      1001      1004      1007       999       998      1001      1002
       999       998      1001      1003       999       998      1001      1004
      1000       998      1001      1002      1000       998      1001      1003
      1000       998      1001      1004      1001      1004      1007      1008
      1001      1004      1007      1009      1001      1004      1007      1010
      1002      1001      1004      1005      1002      1001      1004      1006
      1002      1001      1004      1007      1003      1001      1004      1005
      1003      1001      1004      1006      1003      1001      1004      1007
      1005      1004      1007      1008      1005      1004      1007      1009
      1005      1004      1007      1010      1006      1004      1007      1008
      1006      1004      1007      1009      1006      1004      1007      1010
      1011      1015      1018      1019      1011      1015      1018      1049
      1011      1057      1054      1049      1011      1057      1054      1055
      1011      1057      1054      1056      1012      1011      1013      1014
      1012      1011      1015      1016      1012      1011      1015      1017
      1012      1011      1015      1018      1012      1011      1057      1054
      1012      1011      1057      1058      1012      1011      1057      1059
      1013      1011      1015      1016      1013      1011      1015      1017
      1013      1011      1015      1018      1013      1011      1057      1054
      1013      1011      1057      1058      1013      1011      1057      1059
      1014      1013      1011      1015      1014      1013      1011      1057
      1015      1011      1057      1054      1015      1011      1057      1058
      1015      1011      1057      1059      1015      1018      1019      1020
      1015      1018      1019      1021      1015      1018      1049      1047
      1015      1018      1049      1050      1015      1018      1049      1054
      1016      1015      1011      1057      1016      1015      1018      1019
      1016      1015      1018      1049      1017      1015      1011      1057
      1017      1015      1018      1019      1017      1015      1018      1049
      1018      1015      1011      1057      1018      1019      1021      1022
      1018      1019      1021      1023      1018      1019      1021      1024
      1018      1049      1047      1024      1018      1049      1047      1044
      1018      1049      1047      1048      1018      1049      1050      1051
      1018      1049      1050      1052      1018      1049      1050      1053
      1018      1049      1054      1055      1018      1049      1054      1056
      1018      1049      1054      1057      1019      1018      1049      1047
      1019      1018      1049      1050      1019      1018      1049      1054
      1019      1021      1024      1025      1019      1021      1024      1026
      1019      1021      1024      1047      1020      1019      1018      1049
      1020      1019      1021      1022      1020      1019      1021      1023
      1020      1019      1021      1024      1021      1019      1018      1049
      1021      1024      1026      1027      1021      1024      1026      1028
      1021      1024      1026      1036      1021      1024      1047      1044
      1021      1024      1047      1048      1021      1024      1047      1049
      1022      1021      1024      1025      1022      1021      1024      1026
      1022      1021      1024      1047      1023      1021      1024      1025
      1023      1021      1024      1026      1023      1021      1024      1047
      1024      1026      1028      1029      1024      1026      1028      1030
      1024      1026      1028      1031      1024      1026      1036      1034
      1024      1026      1036      1037      1024      1026      1036      1041
      1024      1047      1044      1041      1024      1047      1044      1045
      1024      1047      1044      1046      1024      1047      1049      1050
      1024      1047      1049      1054      1025      1024      1026      1027
      1025      1024      1026      1028      1025      1024      1026      1036
      1025      1024      1047      1044      1025      1024      1047      1048
      1025      1024      1047      1049      1026      1024      1047      1044
      1026      1024      1047      1048      1026      1024      1047      1049
      1026      1028      1031      1032      1026      1028      1031      1033
      1026      1028      1031      1034      1026      1036      1034      1031
      1026      1036      1034      1035      1026      1036      1034      1060
      1026      1036      1037      1038      1026      1036      1037      1039
      1026      1036      1037      1040      1026      1036      1041      1042
      1026      1036      1041      1043      1026      1036      1041      1044
      1027      1026      1024      1047      1027      1026      1028      1029
      1027      1026      1028      1030      1027      1026      1028      1031
      1027      1026      1036      1034      1027      1026      1036      1037
      1027      1026      1036      1041      1028      1026      1024      1047
      1028      1026      1036      1034      1028      1026      1036      1037
      1028      1026      1036      1041      1028      1031      1034      1035
      1028      1031      1034      1036      1028      1031      1034      1060
      1029      1028      1026      1036      1029      1028      1031      1032
      1029      1028      1031      1033      1029      1028      1031      1034
      1030      1028      1026      1036      1030      1028      1031      1032
      1030      1028      1031      1033      1030      1028      1031      1034
      1031      1028      1026      1036      1031      1034      1036      1037
      1031      1034      1036      1041      1031      1034      1060      1061
      1031      1034      1060      1062      1031      1034      1060      1066
      1032      1031      1034      1035      1032      1031      1034      1036
      1032      1031      1034      1060      1033      1031      1034      1035
      1033      1031      1034      1036      1033      1031      1034      1060
      1034      1036      1037      1038      1034      1036      1037      1039
      1034      1036      1037      1040      1034      1036      1041      1042
      1034      1036      1041      1043      1034      1036      1041      1044
      1034      1060      1062      1063      1034      1060      1062      1064
      1034      1060      1062      1065      1034      1060      1066      1067
      1034      1060      1066      1068      1034      1060      1066      1069
      1035      1034      1036      1037      1035      1034      1036      1041
      1035      1034      1060      1061      1035      1034      1060      1062
      1035      1034      1060      1066      1036      1026      1024      1047
      1036      1034      1060      1061      1036      1034      1060      1062
      1036      1034      1060      1066      1036      1041      1044      1045
      1036      1041      1044      1046      1036      1041      1044      1047
      1037      1036      1034      1060      1037      1036      1041      1042
      1037      1036      1041      1043      1037      1036      1041      1044
      1038      1037      1036      1041      1039      1037      1036      1041
      1040      1037      1036      1041      1041      1036      1034      1060
      1041      1044      1047      1048      1041      1044      1047      1049
      1042      1041      1044      1045      1042      1041      1044      1046
      1042      1041      1044      1047      1043      1041      1044      1045
      1043      1041      1044      1046      1043      1041      1044      1047
      1044      1047      1049      1050      1044      1047      1049      1054
      1045      1044      1047      1048      1045      1044      1047      1049
      1046      1044      1047      1048      1046      1044      1047      1049
      1047      1049      1050      1051      1047      1049      1050      1052
      1047      1049      1050      1053      1047      1049      1054      1055
      1047      1049      1054      1056      1047      1049      1054      1057
      1048      1047      1049      1050      1048      1047      1049      1054
      1049      1054      1057      1058      1049      1054      1057      1059
      1050      1049      1054      1055      1050      1049      1054      1056
      1050      1049      1054      1057      1051      1050      1049      1054
      1052      1050      1049      1054      1053      1050      1049      1054
      1055      1054      1057      1058      1055      1054      1057      1059
      1056      1054      1057      1058      1056      1054      1057      1059
      1060      1066      1069      1070      1060      1066      1069      1071
      1060      1066      1069      1072      1061      1060      1062      1063
      1061      1060      1062      1064      1061      1060      1062      1065
      1061      1060      1066      1067      1061      1060      1066      1068
      1061      1060      1066      1069      1062      1060      1066      1067
      1062      1060      1066      1068      1062      1060      1066      1069
      1063      1062      1060      1066      1064      1062      1060      1066
      1065      1062      1060      1066      1066      1069      1072      1073
      1066      1069      1072      1074      1066      1069      1072      1075
      1067      1066      1069      1070      1067      1066      1069      1071
      1067      1066      1069      1072      1068      1066      1069      1070
      1068      1066      1069      1071      1068      1066      1069      1072
      1069      1072      1075      1076      1069      1072      1075      1077
      1069      1072      1075      1081      1070      1069      1072      1073
      1070      1069      1072      1074      1070      1069      1072      1075
      1071      1069      1072      1073      1071      1069      1072      1074
      1071      1069      1072      1075      1072      1075      1077      1078
      1072      1075      1077      1079      1072      1075      1077      1080
      1072      1075      1081      1082      1072      1075      1081      1083
      1072      1075      1081      1084      1073      1072      1075      1076
      1073      1072      1075      1077      1073      1072      1075      1081
      1074      1072      1075      1076      1074      1072      1075      1077
      1074      1072      1075      1081      1076      1075      1077      1078
      1076      1075      1077      1079      1076      1075      1077      1080
      1076      1075      1081      1082      1076      1075      1081      1083
      1076      1075      1081      1084      1077      1075      1081      1082
      1077      1075      1081      1083      1077      1075      1081      1084
      1078      1077      1075      1081      1079      1077      1075      1081
      1080      1077      1075      1081      1085      1089      1092      1093
      1085      1089      1092      1123      1085      1131      1128      1123
      1085      1131      1128      1129      1085      1131      1128      1130
      1086      1085      1087      1088      1086      1085      1089      1090
      1086      1085      1089      1091      1086      1085      1089      1092
      1086      1085      1131      1128      1086      1085      1131      1132
      1086      1085      1131      1133      1087      1085      1089      1090
      1087      1085      1089      1091      1087      1085      1089      1092
      1087      1085      1131      1128      1087      1085      1131      1132
      1087      1085      1131      1133      1088      1087      1085      1089
      1088      1087      1085      1131      1089      1085      1131      1128
      1089      1085      1131      1132      1089      1085      1131      1133
      1089      1092      1093      1094      1089      1092      1093      1095
      1089      1092      1123      1121      1089      1092      1123      1124
      1089      1092      1123      1128      1090      1089      1085      1131
      1090      1089      1092      1093      1090      1089      1092      1123
      1091      1089      1085      1131      1091      1089      1092      1093
      1091      1089      1092      1123      1092      1089      1085      1131
      1092      1093      1095      1096      1092      1093      1095      1097
      1092      1093      1095      1098      1092      1123      1121      1098
      1092      1123      1121      1118      1092      1123      1121      1122
      1092      1123      1124      1125      1092      1123      1124      1126
      1092      1123      1124      1127      1092      1123      1128      1129
      1092      1123      1128      1130      1092      1123      1128      1131
      1093      1092      1123      1121      1093      1092      1123      1124
      1093      1092      1123      1128      1093      1095      1098      1099
      1093      1095      1098      1100      1093      1095      1098      1121
      1094      1093      1092      1123      1094      1093      1095      1096
      1094      1093      1095      1097      1094      1093      1095      1098
      1095      1093      1092      1123      1095      1098      1100      1101
      1095      1098      1100      1102      1095      1098      1100      1110
      1095      1098      1121      1118      1095      1098      1121      1122
      1095      1098      1121      1123      1096      1095      1098      1099
      1096      1095      1098      1100      1096      1095      1098      1121
      1097      1095      1098      1099      1097      1095      1098      1100
      1097      1095      1098      1121      1098      1100      1102      1103
      1098      1100      1102      1104      1098      1100      1102      1105
      1098      1100      1110      1108      1098      1100      1110      1111
      1098      1100      1110      1115      1098      1121      1118      1115
      1098      1121      1118      1119      1098      1121      1118      1120
      1098      1121      1123      1124      1098      1121      1123      1128
      1099      1098      1100      1101      1099      1098      1100      1102
      1099      1098      1100      1110      1099      1098      1121      1118
      1099      1098      1121      1122      1099      1098      1121      1123
      1100      1098      1121      1118      1100      1098      1121      1122
      1100      1098      1121      1123      1100      1102      1105      1106
      1100      1102      1105      1107      1100      1102      1105      1108
      1100      1110      1108      1105      1100      1110      1108      1109
      1100      1110      1108      1134      1100      1110      1111      1112
      1100      1110      1111      1113      1100      1110      1111      1114
      1100      1110      1115      1116      1100      1110      1115      1117
      1100      1110      1115      1118      1101      1100      1098      1121
      1101      1100      1102      1103      1101      1100      1102      1104
      1101      1100      1102      1105      1101      1100      1110      1108
      1101      1100      1110      1111      1101      1100      1110      1115
      1102      1100      1098      1121      1102      1100      1110      1108
      1102      1100      1110      1111      1102      1100      1110      1115
      1102      1105      1108      1109      1102      1105      1108      1110
      1102      1105      1108      1134      1103      1102      1100      1110
      1103      1102      1105      1106      1103      1102      1105      1107
      1103      1102      1105      1108      1104      1102      1100      1110
      1104      1102      1105      1106      1104      1102      1105      1107
      1104      1102      1105      1108      1105      1102      1100      1110
      1105      1108      1110      1111      1105      1108      1110      1115
      1105      1108      1134      1135      1105      1108      1134      1136
      1105      1108      1134      1140      1106      1105      1108      1109
      1106      1105      1108      1110      1106      1105      1108      1134
      1107      1105      1108      1109      1107      1105      1108      1110
      1107      1105      1108      1134      1108      1110      1111      1112
      1108      1110      1111      1113      1108      1110      1111      1114
      1108      1110      1115      1116      1108      1110      1115      1117
      1108      1110      1115      1118      1108      1134      1136      1137
      1108      1134      1136      1138      1108      1134      1136      1139
      1108      1134      1140      1141      1108      1134      1140      1142
      1108      1134      1140      1143      1109      1108      1110      1111
      1109      1108      1110      1115      1109      1108      1134      1135
      1109      1108      1134      1136      1109      1108      1134      1140
      1110      1100      1098      1121      1110      1108      1134      1135
      1110      1108      1134      1136      1110      1108      1134      1140
      1110      1115      1118      1119      1110      1115      1118      1120
      1110      1115      1118      1121      1111      1110      1108      1134
      1111      1110      1115      1116      1111      1110      1115      1117
      1111      1110      1115      1118      1112      1111      1110      1115
      1113      1111      1110      1115      1114      1111      1110      1115
      1115      1110      1108      1134      1115      1118      1121      1122
      1115      1118      1121      1123      1116      1115      1118      1119
      1116      1115      1118      1120      1116      1115      1118      1121
      1117      1115      1118      1119      1117      1115      1118      1120
      1117      1115      1118      1121      1118      1121      1123      1124
      1118      1121      1123      1128      1119      1118      1121      1122
      1119      1118      1121      1123      1120      1118      1121      1122
      1120      1118      1121      1123      1121      1123      1124      1125
      1121      1123      1124      1126      1121      1123      1124      1127
      1121      1123      1128      1129      1121      1123      1128      1130
      1121      1123      1128      1131      1122      1121      1123      1124
      1122      1121      1123      1128      1123      1128      1131      1132
      1123      1128      1131      1133      1124      1123      1128      1129
      1124      1123      1128      1130      1124      1123      1128      1131
      1125      1124      1123      1128      1126      1124      1123      1128
      1127      1124      1123      1128      1129      1128      1131      1132
      1129      1128      1131      1133      1130      1128      1131      1132
      1130      1128      1131      1133      1134      1140      1143      1144
      1134      1140      1143      1145      1134      1140      1143      1146
      1135      1134      1136      1137      1135      1134      1136      1138
      1135      1134      1136      1139      1135      1134      1140      1141
      1135      1134      1140      1142      1135      1134      1140      1143
      1136      1134      1140      1141      1136      1134      1140      1142
      1136      1134      1140      1143      1137      1136      1134      1140
      1138      1136      1134      1140      1139      1136      1134      1140
      1140      1143      1146      1147      1140      1143      1146      1148
      1140      1143      1146      1149      1141      1140      1143      1144
      1141      1140      1143      1145      1141      1140      1143      1146
      1142      1140      1143      1144      1142      1140      1143      1145
      1142      1140      1143      1146      1143      1146      1149      1150
      1143      1146      1149      1151      1143      1146      1149      1155
      1144      1143      1146      1147      1144      1143      1146      1148
      1144      1143      1146      1149      1145      1143      1146      1147
      1145      1143      1146      1148      1145      1143      1146      1149
      1146      1149      1151      1152      1146      1149      1151      1153
      1146      1149      1151      1154      1146      1149      1155      1156
      1146      1149      1155      1157      1146      1149      1155      1158
      1147      1146      1149      1150      1147      1146      1149      1151
      1147      1146      1149      1155      1148      1146      1149      1150
      1148      1146      1149      1151      1148      1146      1149      1155
      1150      1149      1151      1152      1150      1149      1151      1153
      1150      1149      1151      1154      1150      1149      1155      1156
      1150      1149      1155      1157      1150      1149      1155      1158
      1151      1149      1155      1156      1151      1149      1155      1157
      1151      1149      1155      1158      1152      1151      1149      1155
      1153      1151      1149      1155      1154      1151      1149      1155
      1159      1163      1166      1167      1159      1163      1166      1168
      1159      1163      1166      1172      1160      1159      1163      1164
      1160      1159      1163      1165      1160      1159      1163      1166
      1161      1159      1163      1164      1161      1159      1163      1165
      1161      1159      1163      1166      1162      1159      1163      1164
      1162      1159      1163      1165      1162      1159      1163      1166
      1163      1166      1172      1169      1164      1163      1166      1167
      1164      1163      1166      1168      1164      1163      1166      1172
      1165      1163      1166      1167      1165      1163      1166      1168
      1165      1163      1166      1172      1166      1172      1169      1170
      1166      1172      1169      1171      1166      1172      1169      1173
      1167      1166      1172      1169      1168      1166      1172      1169
      1169      1173      1174      1175      1169      1173      1174      1176
      1169      1173      1174      1177      1170      1169      1173      1174
      1171      1169      1173      1174      1172      1169      1173      1174
      1173      1174      1177      1178      1173      1174      1177      1179
      1173      1174      1177      1185      1174      1177      1179      1180
      1174      1177      1185      1186      1174      1177      1185      1187
      1174      1177      1185      1188      1175      1174      1177      1178
      1175      1174      1177      1179      1175      1174      1177      1185
      1176      1174      1177      1178      1176      1174      1177      1179
      1176      1174      1177      1185      1177      1179      1180      1181
      1177      1179      1180      1182      1177      1185      1188      1189
      1178      1177      1179      1180      1178      1177      1185      1186
      1178      1177      1185      1187      1178      1177      1185      1188
      1179      1177      1185      1186      1179      1177      1185      1187
      1179      1177      1185      1188      1179      1180      1182      1183
      1179      1180      1182      1184      1179      1180      1182      1194
      1180      1179      1177      1185      1180      1182      1194      1195
      1180      1182      1194      1196      1180      1182      1194      1197
      1181      1180      1182      1183      1181      1180      1182      1184
      1181      1180      1182      1194      1182      1194      1197      1198
      1182      1194      1197      1199      1182      1194      1197      1200
      1183      1182      1194      1195      1183      1182      1194      1196
      1183      1182      1194      1197      1184      1182      1194      1195
      1184      1182      1194      1196      1184      1182      1194      1197
      1185      1188      1189      1190      1185      1188      1189      1191
      1186      1185      1188      1189      1187      1185      1188      1189
      1188      1189      1191      1192      1188      1189      1191      1193
      1188      1189      1191      1241      1189      1191      1241      1242
      1189      1191      1241      1243      1189      1191      1241      1244
      1190      1189      1191      1192      1190      1189      1191      1193
      1190      1189      1191      1241      1191      1241      1244      1245
      1191      1241      1244      1246      1191      1241      1244      1247
      1192      1191      1241      1242      1192      1191      1241      1243
      1192      1191      1241      1244      1193      1191      1241      1242
      1193      1191      1241      1243      1193      1191      1241      1244
      1194      1197      1200      1201      1194      1197      1200      1202
      1195      1194      1197      1198      1195      1194      1197      1199
      1195      1194      1197      1200      1196      1194      1197      1198
      1196      1194      1197      1199      1196      1194      1197      1200
      1197      1200      1202      1203      1197      1200      1202      1204
      1198      1197      1200      1201      1198      1197      1200      1202
      1199      1197      1200      1201      1199      1197      1200      1202
      1200      1202      1204      1205      1200      1202      1204      1206
      1200      1202      1204      1207      1201      1200      1202      1203
      1201      1200      1202      1204      1202      1204      1207      1208
      1202      1204      1207      1209      1203      1202      1204      1205
      1203      1202      1204      1206      1203      1202      1204      1207
      1204      1207      1209      1210      1204      1207      1209      1211
      1205      1204      1207      1208      1205      1204      1207      1209
      1206      1204      1207      1208      1206      1204      1207      1209
      1207      1209      1211      1212      1207      1209      1211      1213
      1207      1209      1211      1214      1208      1207      1209      1210
      1208      1207      1209      1211      1209      1211      1214      1215
      1209      1211      1214      1216      1210      1209      1211      1212
      1210      1209      1211      1213      1210      1209      1211      1214
      1211      1214      1216      1217      1211      1214      1216      1218
      1212      1211      1214      1215      1212      1211      1214      1216
      1213      1211      1214      1215      1213      1211      1214      1216
      1214      1216      1218      1219      1214      1216      1218      1220
      1214      1216      1218      1221      1215      1214      1216      1217
      1215      1214      1216      1218      1216      1218      1221      1222
      1216      1218      1221      1223      1217      1216      1218      1219
      1217      1216      1218      1220      1217      1216      1218      1221
      1218      1221      1223      1224      1218      1221      1223      1225
      1219      1218      1221      1222      1219      1218      1221      1223
      1220      1218      1221      1222      1220      1218      1221      1223
      1221      1223      1225      1226      1221      1223      1225      1227
      1221      1223      1225      1228      1222      1221      1223      1224
      1222      1221      1223      1225      1223      1225      1228      1229
      1223      1225      1228      1230      1223      1225      1228      1231
      1224      1223      1225      1226      1224      1223      1225      1227
      1224      1223      1225      1228      1225      1228      1231      1232
      1225      1228      1231      1233      1225      1228      1231      1234
      1226      1225      1228      1229      1226      1225      1228      1230
      1226      1225      1228      1231      1227      1225      1228      1229
      1227      1225      1228      1230      1227      1225      1228      1231
      1228      1231      1234      1235      1228      1231      1234      1236
      1228      1231      1234      1237      1229      1228      1231      1232
      1229      1228      1231      1233      1229      1228      1231      1234
      1230      1228      1231      1232      1230      1228      1231      1233
      1230      1228      1231      1234      1231      1234      1237      1238
      1231      1234      1237      1239      1231      1234      1237      1240
      1232      1231      1234      1235      1232      1231      1234      1236
      1232      1231      1234      1237      1233      1231      1234      1235
      1233      1231      1234      1236      1233      1231      1234      1237
      1235      1234      1237      1238      1235      1234      1237      1239
      1235      1234      1237      1240      1236      1234      1237      1238
      1236      1234      1237      1239      1236      1234      1237      1240
      1241      1244      1247      1248      1241      1244      1247      1249
      1241      1244      1247      1250      1242      1241      1244      1245
      1242      1241      1244      1246      1242      1241      1244      1247
      1243      1241      1244      1245      1243      1241      1244      1246
      1243      1241      1244      1247      1244      1247      1250      1251
      1244      1247      1250      1252      1244      1247      1250      1253
      1245      1244      1247      1248      1245      1244      1247      1249
      1245      1244      1247      1250      1246      1244      1247      1248
      1246      1244      1247      1249      1246      1244      1247      1250
      1247      1250      1253      1254      1247      1250      1253      1255
      1247      1250      1253      1256      1248      1247      1250      1251
      1248      1247      1250      1252      1248      1247      1250      1253
      1249      1247      1250      1251      1249      1247      1250      1252
      1249      1247      1250      1253      1250      1253      1256      1257
      1250      1253      1256      1258      1250      1253      1256      1259
      1251      1250      1253      1254      1251      1250      1253      1255
      1251      1250      1253      1256      1252      1250      1253      1254
      1252      1250      1253      1255      1252      1250      1253      1256
      1253      1256      1259      1260      1253      1256      1259      1261
      1253      1256      1259      1262      1254      1253      1256      1257
      1254      1253      1256      1258      1254      1253      1256      1259
      1255      1253      1256      1257      1255      1253      1256      1258
      1255      1253      1256      1259      1256      1259      1262      1263
      1256      1259      1262      1264      1256      1259      1262      1265
      1257      1256      1259      1260      1257      1256      1259      1261
      1257      1256      1259      1262      1258      1256      1259      1260
      1258      1256      1259      1261      1258      1256      1259      1262
      1259      1262      1265      1266      1259      1262      1265      1267
      1259      1262      1265      1268      1260      1259      1262      1263
      1260      1259      1262      1264      1260      1259      1262      1265
      1261      1259      1262      1263      1261      1259      1262      1264
      1261      1259      1262      1265      1262      1265      1268      1269
      1262      1265      1268      1270      1262      1265      1268      1271
      1263      1262      1265      1266      1263      1262      1265      1267
      1263      1262      1265      1268      1264      1262      1265      1266
      1264      1262      1265      1267      1264      1262      1265      1268
      1265      1268      1271      1272      1265      1268      1271      1273
      1265      1268      1271      1274      1266      1265      1268      1269
      1266      1265      1268      1270      1266      1265      1268      1271
      1267      1265      1268      1269      1267      1265      1268      1270
      1267      1265      1268      1271      1268      1271      1274      1275
      1268      1271      1274      1276      1268      1271      1274      1277
      1269      1268      1271      1272      1269      1268      1271      1273
      1269      1268      1271      1274      1270      1268      1271      1272
      1270      1268      1271      1273      1270      1268      1271      1274
      1271      1274      1277      1278      1271      1274      1277      1279
      1271      1274      1277      1280      1272      1271      1274      1275
      1272      1271      1274      1276      1272      1271      1274      1277
      1273      1271      1274      1275      1273      1271      1274      1276
      1273      1271      1274      1277      1274      1277      1280      1281
      1274      1277      1280      1282      1274      1277      1280      1283
      1275      1274      1277      1278      1275      1274      1277      1279
      1275      1274      1277      1280      1276      1274      1277      1278
      1276      1274      1277      1279      1276      1274      1277      1280
      1277      1280      1283      1284      1277      1280      1283      1285
      1277      1280      1283      1286      1278      1277      1280      1281
      1278      1277      1280      1282      1278      1277      1280      1283
      1279      1277      1280      1281      1279      1277      1280      1282
      1279      1277      1280      1283      1280      1283      1286      1287
      1280      1283      1286      1288      1280      1283      1286      1289
      1281      1280      1283      1284      1281      1280      1283      1285
      1281      1280      1283      1286      1282      1280      1283      1284
      1282      1280      1283      1285      1282      1280      1283      1286
      1284      1283      1286      1287      1284      1283      1286      1288
      1284      1283      1286      1289      1285      1283      1286      1287
      1285      1283      1286      1288      1285      1283      1286      1289
      1290      1294      1297      1298      1290      1294      1297      1328
      1290      1336      1333      1328      1290      1336      1333      1334
      1290      1336      1333      1335      1291      1290      1292      1293
      1291      1290      1294      1295      1291      1290      1294      1296
      1291      1290      1294      1297      1291      1290      1336      1333
      1291      1290      1336      1337      1291      1290      1336      1338
      1292      1290      1294      1295      1292      1290      1294      1296
      1292      1290      1294      1297      1292      1290      1336      1333
      1292      1290      1336      1337      1292      1290      1336      1338
      1293      1292      1290      1294      1293      1292      1290      1336
      1294      1290      1336      1333      1294      1290      1336      1337
      1294      1290      1336      1338      1294      1297      1298      1299
      1294      1297      1298      1300      1294      1297      1328      1326
      1294      1297      1328      1329      1294      1297      1328      1333
      1295      1294      1290      1336      1295      1294      1297      1298
      1295      1294      1297      1328      1296      1294      1290      1336
      1296      1294      1297      1298      1296      1294      1297      1328
      1297      1294      1290      1336      1297      1298      1300      1301
      1297      1298      1300      1302      1297      1298      1300      1303
      1297      1328      1326      1303      1297      1328      1326      1323
      1297      1328      1326      1327      1297      1328      1329      1330
      1297      1328      1329      1331      1297      1328      1329      1332
      1297      1328      1333      1334      1297      1328      1333      1335
      1297      1328      1333      1336      1298      1297      1328      1326
      1298      1297      1328      1329      1298      1297      1328      1333
      1298      1300      1303      1304      1298      1300      1303      1305
      1298      1300      1303      1326      1299      1298      1297      1328
      1299      1298      1300      1301      1299      1298      1300      1302
      1299      1298      1300      1303      1300      1298      1297      1328
      1300      1303      1305      1306      1300      1303      1305      1307
      1300      1303      1305      1315      1300      1303      1326      1323
      1300      1303      1326      1327      1300      1303      1326      1328
      1301      1300      1303      1304      1301      1300      1303      1305
      1301      1300      1303      1326      1302      1300      1303      1304
      1302      1300      1303      1305      1302      1300      1303      1326
      1303      1305      1307      1308      1303      1305      1307      1309
      1303      1305      1307      1310      1303      1305      1315      1313
      1303      1305      1315      1316      1303      1305      1315      1320
      1303      1326      1323      1320      1303      1326      1323      1324
      1303      1326      1323      1325      1303      1326      1328      1329
      1303      1326      1328      1333      1304      1303      1305      1306
      1304      1303      1305      1307      1304      1303      1305      1315
      1304      1303      1326      1323      1304      1303      1326      1327
      1304      1303      1326      1328      1305      1303      1326      1323
      1305      1303      1326      1327      1305      1303      1326      1328
      1305      1307      1310      1311      1305      1307      1310      1312
      1305      1307      1310      1313      1305      1315      1313      1310
      1305      1315      1313      1314      1305      1315      1313      1339
      1305      1315      1316      1317      1305      1315      1316      1318
      1305      1315      1316      1319      1305      1315      1320      1321
      1305      1315      1320      1322      1305      1315      1320      1323
      1306      1305      1303      1326      1306      1305      1307      1308
      1306      1305      1307      1309      1306      1305      1307      1310
      1306      1305      1315      1313      1306      1305      1315      1316
      1306      1305      1315      1320      1307      1305      1303      1326
      1307      1305      1315      1313      1307      1305      1315      1316
      1307      1305      1315      1320      1307      1310      1313      1314
      1307      1310      1313      1315      1307      1310      1313      1339
      1308      1307      1305      1315      1308      1307      1310      1311
      1308      1307      1310      1312      1308      1307      1310      1313
      1309      1307      1305      1315      1309      1307      1310      1311
      1309      1307      1310      1312      1309      1307      1310      1313
      1310      1307      1305      1315      1310      1313      1315      1316
      1310      1313      1315      1320      1310      1313      1339      1340
      1310      1313      1339      1341      1310      1313      1339      1345
      1311      1310      1313      1314      1311      1310      1313      1315
      1311      1310      1313      1339      1312      1310      1313      1314
      1312      1310      1313      1315      1312      1310      1313      1339
      1313      1315      1316      1317      1313      1315      1316      1318
      1313      1315      1316      1319      1313      1315      1320      1321
      1313      1315      1320      1322      1313      1315      1320      1323
      1313      1339      1341      1342      1313      1339      1341      1343
      1313      1339      1341      1344      1313      1339      1345      1346
      1313      1339      1345      1347      1313      1339      1345      1348
      1314      1313      1315      1316      1314      1313      1315      1320
      1314      1313      1339      1340      1314      1313      1339      1341
      1314      1313      1339      1345      1315      1305      1303      1326
      1315      1313      1339      1340      1315      1313      1339      1341
      1315      1313      1339      1345      1315      1320      1323      1324
      1315      1320      1323      1325      1315      1320      1323      1326
      1316      1315      1313      1339      1316      1315      1320      1321
      1316      1315      1320      1322      1316      1315      1320      1323
      1317      1316      1315      1320      1318      1316      1315      1320
      1319      1316      1315      1320      1320      1315      1313      1339
      1320      1323      1326      1327      1320      1323      1326      1328
      1321      1320      1323      1324      1321      1320      1323      1325
      1321      1320      1323      1326      1322      1320      1323      1324
      1322      1320      1323      1325      1322      1320      1323      1326
      1323      1326      1328      1329      1323      1326      1328      1333
      1324      1323      1326      1327      1324      1323      1326      1328
      1325      1323      1326      1327      1325      1323      1326      1328
      1326      1328      1329      1330      1326      1328      1329      1331
      1326      1328      1329      1332      1326      1328      1333      1334
      1326      1328      1333      1335      1326      1328      1333      1336
      1327      1326      1328      1329      1327      1326      1328      1333
      1328      1333      1336      1337      1328      1333      1336      1338
      1329      1328      1333      1334      1329      1328      1333      1335
      1329      1328      1333      1336      1330      1329      1328      1333
      1331      1329      1328      1333      1332      1329      1328      1333
      1334      1333      1336      1337      1334      1333      1336      1338
      1335      1333      1336      1337      1335      1333      1336      1338
      1339      1345      1348      1349      1339      1345      1348      1350
      1339      1345      1348      1351      1340      1339      1341      1342
      1340      1339      1341      1343      1340      1339      1341      1344
      1340      1339      1345      1346      1340      1339      1345      1347
      1340      1339      1345      1348      1341      1339      1345      1346
      1341      1339      1345      1347      1341      1339      1345      1348
      1342      1341      1339      1345      1343      1341      1339      1345
      1344      1341      1339      1345      1345      1348      1351      1352
      1345      1348      1351      1353      1345      1348      1351      1354
      1346      1345      1348      1349      1346      1345      1348      1350
      1346      1345      1348      1351      1347      1345      1348      1349
      1347      1345      1348      1350      1347      1345      1348      1351
      1348      1351      1354      1355      1348      1351      1354      1356
      1348      1351      1354      1360      1349      1348      1351      1352
      1349      1348      1351      1353      1349      1348      1351      1354
      1350      1348      1351      1352      1350      1348      1351      1353
      1350      1348      1351      1354      1351      1354      1356      1357
      1351      1354      1356      1358      1351      1354      1356      1359
      1351      1354      1360      1361      1351      1354      1360      1362
      1351      1354      1360      1363      1352      1351      1354      1355
      1352      1351      1354      1356      1352      1351      1354      1360
      1353      1351      1354      1355      1353      1351      1354      1356
      1353      1351      1354      1360      1355      1354      1356      1357
      1355      1354      1356      1358      1355      1354      1356      1359
      1355      1354      1360      1361      1355      1354      1360      1362
      1355      1354      1360      1363      1356      1354      1360      1361
      1356      1354      1360      1362      1356      1354      1360      1363
      1357      1356      1354      1360      1358      1356      1354      1360
      1359      1356      1354      1360      1364      1377      1380      1381
      1364      1377      1380      1382      1364      1377      1380      1386
      1365      1364      1369      1370      1365      1364      1369      1371
      1365      1364      1369      1372      1365      1364      1373      1374
      1365      1364      1373      1375      1365      1364      1373      1376
      1365      1364      1377      1378      1365      1364      1377      1379
      1365      1364      1377      1380      1366      1365      1364      1369
      1366      1365      1364      1373      1366      1365      1364      1377
      1367      1365      1364      1369      1367      1365      1364      1373
      1367      1365      1364      1377      1368      1365      1364      1369
      1368      1365      1364      1373      1368      1365      1364      1377
      1369      1364      1373      1374      1369      1364      1373      1375
      1369      1364      1373      1376      1369      1364      1377      1378
      1369      1364      1377      1379      1369      1364      1377      1380
      1370      1369      1364      1373      1370      1369      1364      1377
      1371      1369      1364      1373      1371      1369      1364      1377
      1372      1369      1364      1373      1372      1369      1364      1377
      1373      1364      1377      1378      1373      1364      1377      1379
      1373      1364      1377      1380      1374      1373      1364      1377
      1375      1373      1364      1377      1376      1373      1364      1377
      1377      1380      1386      1383      1378      1377      1380      1381
      1378      1377      1380      1382      1378      1377      1380      1386
      1379      1377      1380      1381      1379      1377      1380      1382
      1379      1377      1380      1386      1380      1386      1383      1384
      1380      1386      1383      1385      1380      1386      1383      1387
      1381      1380      1386      1383      1382      1380      1386      1383
      1383      1387      1388      1389      1383      1387      1388      1390
      1383      1387      1388      1391      1384      1383      1387      1388
      1385      1383      1387      1388      1386      1383      1387      1388
      1387      1388      1391      1392      1387      1388      1391      1393
      1387      1388      1391      1399      1388      1391      1393      1394
      1388      1391      1399      1400      1388      1391      1399      1401
      1388      1391      1399      1402      1389      1388      1391      1392
      1389      1388      1391      1393      1389      1388      1391      1399
      1390      1388      1391      1392      1390      1388      1391      1393
      1390      1388      1391      1399      1391      1393      1394      1395
      1391      1393      1394      1396      1391      1399      1402      1403
      1392      1391      1393      1394      1392      1391      1399      1400
      1392      1391      1399      1401      1392      1391      1399      1402
      1393      1391      1399      1400      1393      1391      1399      1401
      1393      1391      1399      1402      1393      1394      1396      1397
      1393      1394      1396      1398      1393      1394      1396      1408
      1394      1393      1391      1399      1394      1396      1408      1409
      1394      1396      1408      1410      1394      1396      1408      1411
      1395      1394      1396      1397      1395      1394      1396      1398
      1395      1394      1396      1408      1396      1408      1411      1412
      1396      1408      1411      1413      1396      1408      1411      1414
      1397      1396      1408      1409      1397      1396      1408      1410
      1397      1396      1408      1411      1398      1396      1408      1409
      1398      1396      1408      1410      1398      1396      1408      1411
      1399      1402      1403      1404      1399      1402      1403      1405
      1400      1399      1402      1403      1401      1399      1402      1403
      1402      1403      1405      1406      1402      1403      1405      1407
      1402      1403      1405      1453      1403      1405      1453      1454
      1403      1405      1453      1455      1403      1405      1453      1456
      1404      1403      1405      1406      1404      1403      1405      1407
      1404      1403      1405      1453      1405      1453      1456      1457
      1405      1453      1456      1458      1405      1453      1456      1459
      1406      1405      1453      1454      1406      1405      1453      1455
      1406      1405      1453      1456      1407      1405      1453      1454
      1407      1405      1453      1455      1407      1405      1453      1456
      1408      1411      1414      1415      1408      1411      1414      1416
      1408      1411      1414      1417      1409      1408      1411      1412
      1409      1408      1411      1413      1409      1408      1411      1414
      1410      1408      1411      1412      1410      1408      1411      1413
      1410      1408      1411      1414      1411      1414      1417      1418
      1411      1414      1417      1419      1411      1414      1417      1420
      1412      1411      1414      1415      1412      1411      1414      1416
      1412      1411      1414      1417      1413      1411      1414      1415
      1413      1411      1414      1416      1413      1411      1414      1417
      1414      1417      1420      1421      1414      1417      1420      1422
      1414      1417      1420      1423      1415      1414      1417      1418
      1415      1414      1417      1419      1415      1414      1417      1420
      1416      1414      1417      1418      1416      1414      1417      1419
      1416      1414      1417      1420      1417      1420      1423      1424
      1417      1420      1423      1425      1417      1420      1423      1426
      1418      1417      1420      1421      1418      1417      1420      1422
      1418      1417      1420      1423      1419      1417      1420      1421
      1419      1417      1420      1422      1419      1417      1420      1423
      1420      1423      1426      1427      1420      1423      1426      1428
      1421      1420      1423      1424      1421      1420      1423      1425
      1421      1420      1423      1426      1422      1420      1423      1424
      1422      1420      1423      1425      1422      1420      1423      1426
      1423      1426      1428      1429      1423      1426      1428      1430
      1424      1423      1426      1427      1424      1423      1426      1428
      1425      1423      1426      1427      1425      1423      1426      1428
      1426      1428      1430      1431      1426      1428      1430      1432
      1426      1428      1430      1433      1427      1426      1428      1429
      1427      1426      1428      1430      1428      1430      1433      1434
      1428      1430      1433      1435      1429      1428      1430      1431
      1429      1428      1430      1432      1429      1428      1430      1433
      1430      1433      1435      1436      1430      1433      1435      1437
      1431      1430      1433      1434      1431      1430      1433      1435
      1432      1430      1433      1434      1432      1430      1433      1435
      1433      1435      1437      1438      1433      1435      1437      1439
      1433      1435      1437      1440      1434      1433      1435      1436
      1434      1433      1435      1437      1435      1437      1440      1441
      1435      1437      1440      1442      1435      1437      1440      1443
      1436      1435      1437      1438      1436      1435      1437      1439
      1436      1435      1437      1440      1437      1440      1443      1444
      1437      1440      1443      1445      1437      1440      1443      1446
      1438      1437      1440      1441      1438      1437      1440      1442
      1438      1437      1440      1443      1439      1437      1440      1441
      1439      1437      1440      1442      1439      1437      1440      1443
      1440      1443      1446      1447      1440      1443      1446      1448
      1440      1443      1446      1449      1441      1440      1443      1444
      1441      1440      1443      1445      1441      1440      1443      1446
      1442      1440      1443      1444      1442      1440      1443      1445
      1442      1440      1443      1446      1443      1446      1449      1450
      1443      1446      1449      1451      1443      1446      1449      1452
      1444      1443      1446      1447      1444      1443      1446      1448
      1444      1443      1446      1449      1445      1443      1446      1447
      1445      1443      1446      1448      1445      1443      1446      1449
      1447      1446      1449      1450      1447      1446      1449      1451
      1447      1446      1449      1452      1448      1446      1449      1450
      1448      1446      1449      1451      1448      1446      1449      1452
      1453      1456      1459      1460      1453      1456      1459      1461
      1453      1456      1459      1462      1454      1453      1456      1457
      1454      1453      1456      1458      1454      1453      1456      1459
      1455      1453      1456      1457      1455      1453      1456      1458
      1455      1453      1456      1459      1456      1459      1462      1463
      1456      1459      1462      1464      1456      1459      1462      1465
      1457      1456      1459      1460      1457      1456      1459      1461
      1457      1456      1459      1462      1458      1456      1459      1460
      1458      1456      1459      1461      1458      1456      1459      1462
      1459      1462      1465      1466      1459      1462      1465      1467
      1459      1462      1465      1468      1460      1459      1462      1463
      1460      1459      1462      1464      1460      1459      1462      1465
      1461      1459      1462      1463      1461      1459      1462      1464
      1461      1459      1462      1465      1462      1465      1468      1469
      1462      1465      1468      1470      1462      1465      1468      1471
      1463      1462      1465      1466      1463      1462      1465      1467
      1463      1462      1465      1468      1464      1462      1465      1466
      1464      1462      1465      1467      1464      1462      1465      1468
      1465      1468      1471      1472      1465      1468      1471      1473
      1465      1468      1471      1474      1466      1465      1468      1469
      1466      1465      1468      1470      1466      1465      1468      1471
      1467      1465      1468      1469      1467      1465      1468      1470
      1467      1465      1468      1471      1468      1471      1474      1475
      1468      1471      1474      1476      1468      1471      1474      1477
      1469      1468      1471      1472      1469      1468      1471      1473
      1469      1468      1471      1474      1470      1468      1471      1472
      1470      1468      1471      1473      1470      1468      1471      1474
      1471      1474      1477      1478      1471      1474      1477      1479
      1471      1474      1477      1480      1472      1471      1474      1475
      1472      1471      1474      1476      1472      1471      1474      1477
      1473      1471      1474      1475      1473      1471      1474      1476
      1473      1471      1474      1477      1474      1477      1480      1481
      1474      1477      1480      1482      1474      1477      1480      1483
      1475      1474      1477      1478      1475      1474      1477      1479
      1475      1474      1477      1480      1476      1474      1477      1478
      1476      1474      1477      1479      1476      1474      1477      1480
      1477      1480      1483      1484      1477      1480      1483      1485
      1477      1480      1483      1486      1478      1477      1480      1481
      1478      1477      1480      1482      1478      1477      1480      1483
      1479      1477      1480      1481      1479      1477      1480      1482
      1479      1477      1480      1483      1480      1483      1486      1487
      1480      1483      1486      1488      1480      1483      1486      1489
      1481      1480      1483      1484      1481      1480      1483      1485
      1481      1480      1483      1486      1482      1480      1483      1484
      1482      1480      1483      1485      1482      1480      1483      1486
      1483      1486      1489      1490      1483      1486      1489      1491
      1483      1486      1489      1492      1484      1483      1486      1487
      1484      1483      1486      1488      1484      1483      1486      1489
      1485      1483      1486      1487      1485      1483      1486      1488
      1485      1483      1486      1489      1486      1489      1492      1493
      1486      1489      1492      1494      1486      1489      1492      1495
      1487      1486      1489      1490      1487      1486      1489      1491
      1487      1486      1489      1492      1488      1486      1489      1490
      1488      1486      1489      1491      1488      1486      1489      1492
      1489      1492      1495      1496      1489      1492      1495      1497
      1489      1492      1495      1498      1490      1489      1492      1493
      1490      1489      1492      1494      1490      1489      1492      1495
      1491      1489      1492      1493      1491      1489      1492      1494
      1491      1489      1492      1495      1492      1495      1498      1499
      1492      1495      1498      1500      1492      1495      1498      1501
      1493      1492      1495      1496      1493      1492      1495      1497
      1493      1492      1495      1498      1494      1492      1495      1496
      1494      1492      1495      1497      1494      1492      1495      1498
      1496      1495      1498      1499      1496      1495      1498      1500
      1496      1495      1498      1501      1497      1495      1498      1499
      1497      1495      1498      1500      1497      1495      1498      1501
      1502      1503      1518      1519      1502      1503      1518      1520
      1502      1503      1518      1524      1503      1502      1506      1507
      1503      1502      1506      1508      1503      1502      1506      1509
      1503      1502      1510      1511      1503      1502      1510      1512
      1503      1502      1510      1513      1503      1502      1514      1515
      1503      1502      1514      1516      1503      1502      1514      1517
      1503      1518      1524      1521      1504      1503      1502      1506
      1504      1503      1502      1510      1504      1503      1502      1514
      1504      1503      1518      1519      1504      1503      1518      1520
      1504      1503      1518      1524      1505      1503      1502      1506
      1505      1503      1502      1510      1505      1503      1502      1514
      1505      1503      1518      1519      1505      1503      1518      1520
      1505      1503      1518      1524      1506      1502      1503      1518
      1506      1502      1510      1511      1506      1502      1510      1512
      1506      1502      1510      1513      1506      1502      1514      1515
      1506      1502      1514      1516      1506      1502      1514      1517
      1507      1506      1502      1510      1507      1506      1502      1514
      1508      1506      1502      1510      1508      1506      1502      1514
      1509      1506      1502      1510      1509      1506      1502      1514
      1510      1502      1503      1518      1510      1502      1514      1515
      1510      1502      1514      1516      1510      1502      1514      1517
      1511      1510      1502      1514      1512      1510      1502      1514
      1513      1510      1502      1514      1514      1502      1503      1518
      1518      1524      1521      1522      1518      1524      1521      1523
      1518      1524      1521      1525      1519      1518      1524      1521
      1520      1518      1524      1521      1521      1525      1526      1527
      1521      1525      1526      1528      1521      1525      1526      1529
      1522      1521      1525      1526      1523      1521      1525      1526
      1524      1521      1525      1526      1525      1526      1529      1530
      1525      1526      1529      1531      1525      1526      1529      1537
      1526      1529      1531      1532      1526      1529      1537      1538
      1526      1529      1537      1539      1526      1529      1537      1540
      1527      1526      1529      1530      1527      1526      1529      1531
      1527      1526      1529      1537      1528      1526      1529      1530
      1528      1526      1529      1531      1528      1526      1529      1537
      1529      1531      1532      1533      1529      1531      1532      1534
      1529      1537      1540      1541      1530      1529      1531      1532
      1530      1529      1537      1538      1530      1529      1537      1539
      1530      1529      1537      1540      1531      1529      1537      1538
      1531      1529      1537      1539      1531      1529      1537      1540
      1531      1532      1534      1535      1531      1532      1534      1536
      1531      1532      1534      1546      1532      1531      1529      1537
      1532      1534      1546      1547      1532      1534      1546      1548
      1532      1534      1546      1549      1533      1532      1534      1535
      1533      1532      1534      1536      1533      1532      1534      1546
      1534      1546      1549      1550      1534      1546      1549      1551
      1534      1546      1549      1552      1535      1534      1546      1547
      1535      1534      1546      1548      1535      1534      1546      1549
      1536      1534      1546      1547      1536      1534      1546      1548
      1536      1534      1546      1549      1537      1540      1541      1542
      1537      1540      1541      1543      1538      1537      1540      1541
      1539      1537      1540      1541      1540      1541      1543      1544
      1540      1541      1543      1545      1540      1541      1543      1593
      1541      1543      1593      1594      1541      1543      1593      1595
      1541      1543      1593      1596      1542      1541      1543      1544
      1542      1541      1543      1545      1542      1541      1543      1593
      1543      1593      1596      1597      1543      1593      1596      1598
      1543      1593      1596      1599      1544      1543      1593      1594
      1544      1543      1593      1595      1544      1543      1593      1596
      1545      1543      1593      1594      1545      1543      1593      1595
      1545      1543      1593      1596      1546      1549      1552      1553
      1546      1549      1552      1554      1547      1546      1549      1550
      1547      1546      1549      1551      1547      1546      1549      1552
      1548      1546      1549      1550      1548      1546      1549      1551
      1548      1546      1549      1552      1549      1552      1554      1555
      1549      1552      1554      1556      1550      1549      1552      1553
      1550      1549      1552      1554      1551      1549      1552      1553
      1551      1549      1552      1554      1552      1554      1556      1557
      1552      1554      1556      1558      1552      1554      1556      1559
      1553      1552      1554      1555      1553      1552      1554      1556
      1554      1556      1559      1560      1554      1556      1559      1561
      1555      1554      1556      1557      1555      1554      1556      1558
      1555      1554      1556      1559      1556      1559      1561      1562
      1556      1559      1561      1563      1557      1556      1559      1560
      1557      1556      1559      1561      1558      1556      1559      1560
      1558      1556      1559      1561      1559      1561      1563      1564
      1559      1561      1563      1565      1559      1561      1563      1566
      1560      1559      1561      1562      1560      1559      1561      1563
      1561      1563      1566      1567      1561      1563      1566      1568
      1562      1561      1563      1564      1562      1561      1563      1565
      1562      1561      1563      1566      1563      1566      1568      1569
      1563      1566      1568      1570      1564      1563      1566      1567
      1564      1563      1566      1568      1565      1563      1566      1567
      1565      1563      1566      1568      1566      1568      1570      1571
      1566      1568      1570      1572      1566      1568      1570      1573
      1567      1566      1568      1569      1567      1566      1568      1570
      1568      1570      1573      1574      1568      1570      1573      1575
      1569      1568      1570      1571      1569      1568      1570      1572
      1569      1568      1570      1573      1570      1573      1575      1576
      1570      1573      1575      1577      1571      1570      1573      1574
      1571      1570      1573      1575      1572      1570      1573      1574
      1572      1570      1573      1575      1573      1575      1577      1578
      1573      1575      1577      1579      1573      1575      1577      1580
      1574      1573      1575      1576      1574      1573      1575      1577
      1575      1577      1580      1581      1575      1577      1580      1582
      1575      1577      1580      1583      1576      1575      1577      1578
      1576      1575      1577      1579      1576      1575      1577      1580
      1577      1580      1583      1584      1577      1580      1583      1585
      1577      1580      1583      1586      1578      1577      1580      1581
      1578      1577      1580      1582      1578      1577      1580      1583
      1579      1577      1580      1581      1579      1577      1580      1582
      1579      1577      1580      1583      1580      1583      1586      1587
      1580      1583      1586      1588      1580      1583      1586      1589
      1581      1580      1583      1584      1581      1580      1583      1585
      1581      1580      1583      1586      1582      1580      1583      1584
      1582      1580      1583      1585      1582      1580      1583      1586
      1583      1586      1589      1590      1583      1586      1589      1591
      1583      1586      1589      1592      1584      1583      1586      1587
      1584      1583      1586      1588      1584      1583      1586      1589
      1585      1583      1586      1587      1585      1583      1586      1588
      1585      1583      1586      1589      1587      1586      1589      1590
      1587      1586      1589      1591      1587      1586      1589      1592
      1588      1586      1589      1590      1588      1586      1589      1591
      1588      1586      1589      1592      1593      1596      1599      1600
      1593      1596      1599      1601      1593      1596      1599      1602
      1594      1593      1596      1597      1594      1593      1596      1598
      1594      1593      1596      1599      1595      1593      1596      1597
      1595      1593      1596      1598      1595      1593      1596      1599
      1596      1599      1602      1603      1596      1599      1602      1604
      1596      1599      1602      1605      1597      1596      1599      1600
      1597      1596      1599      1601      1597      1596      1599      1602
      1598      1596      1599      1600      1598      1596      1599      1601
      1598      1596      1599      1602      1599      1602      1605      1606
      1599      1602      1605      1607      1599      1602      1605      1608
      1600      1599      1602      1603      1600      1599      1602      1604
      1600      1599      1602      1605      1601      1599      1602      1603
      1601      1599      1602      1604      1601      1599      1602      1605
      1602      1605      1608      1609      1602      1605      1608      1610
      1602      1605      1608      1611      1603      1602      1605      1606
      1603      1602      1605      1607      1603      1602      1605      1608
      1604      1602      1605      1606      1604      1602      1605      1607
      1604      1602      1605      1608      1605      1608      1611      1612
      1605      1608      1611      1613      1605      1608      1611      1614
      1606      1605      1608      1609      1606      1605      1608      1610
      1606      1605      1608      1611      1607      1605      1608      1609
      1607      1605      1608      1610      1607      1605      1608      1611
      1608      1611      1614      1615      1608      1611      1614      1616
      1608      1611      1614      1617      1609      1608      1611      1612
      1609      1608      1611      1613      1609      1608      1611      1614
      1610      1608      1611      1612      1610      1608      1611      1613
      1610      1608      1611      1614      1611      1614      1617      1618
      1611      1614      1617      1619      1611      1614      1617      1620
      1612      1611      1614      1615      1612      1611      1614      1616
      1612      1611      1614      1617      1613      1611      1614      1615
      1613      1611      1614      1616      1613      1611      1614      1617
      1614      1617      1620      1621      1614      1617      1620      1622
      1614      1617      1620      1623      1615      1614      1617      1618
      1615      1614      1617      1619      1615      1614      1617      1620
      1616      1614      1617      1618      1616      1614      1617      1619
      1616      1614      1617      1620      1617      1620      1623      1624
      1617      1620      1623      1625      1617      1620      1623      1626
      1618      1617      1620      1621      1618      1617      1620      1622
      1618      1617      1620      1623      1619      1617      1620      1621
      1619      1617      1620      1622      1619      1617      1620      1623
      1620      1623      1626      1627      1620      1623      1626      1628
      1620      1623      1626      1629      1621      1620      1623      1624
      1621      1620      1623      1625      1621      1620      1623      1626
      1622      1620      1623      1624      1622      1620      1623      1625
      1622      1620      1623      1626      1623      1626      1629      1630
      1623      1626      1629      1631      1623      1626      1629      1632
      1624      1623      1626      1627      1624      1623      1626      1628
      1624      1623      1626      1629      1625      1623      1626      1627
      1625      1623      1626      1628      1625      1623      1626      1629
      1626      1629      1632      1633      1626      1629      1632      1634
      1626      1629      1632      1635      1627      1626      1629      1630
      1627      1626      1629      1631      1627      1626      1629      1632
      1628      1626      1629      1630      1628      1626      1629      1631
      1628      1626      1629      1632      1629      1632      1635      1636
      1629      1632      1635      1637      1629      1632      1635      1638
      1630      1629      1632      1633      1630      1629      1632      1634
      1630      1629      1632      1635      1631      1629      1632      1633
      1631      1629      1632      1634      1631      1629      1632      1635
      1632      1635      1638      1639      1632      1635      1638      1640
      1632      1635      1638      1641      1633      1632      1635      1636
      1633      1632      1635      1637      1633      1632      1635      1638
      1634      1632      1635      1636      1634      1632      1635      1637
      1634      1632      1635      1638      1636      1635      1638      1639
      1636      1635      1638      1640      1636      1635      1638      1641
      1637      1635      1638      1639      1637      1635      1638      1640
      1637      1635      1638      1641      1642      1643      1658      1659
      1642      1643      1658      1660      1642      1643      1658      1664
      1643      1642      1646      1647      1643      1642      1646      1648
      1643      1642      1646      1649      1643      1642      1650      1651
      1643      1642      1650      1652      1643      1642      1650      1653
      1643      1642      1654      1655      1643      1642      1654      1656
      1643      1642      1654      1657      1643      1658      1664      1661
      1644      1643      1642      1646      1644      1643      1642      1650
      1644      1643      1642      1654      1644      1643      1658      1659
      1644      1643      1658      1660      1644      1643      1658      1664
      1645      1643      1642      1646      1645      1643      1642      1650
      1645      1643      1642      1654      1645      1643      1658      1659
      1645      1643      1658      1660      1645      1643      1658      1664
      1646      1642      1643      1658      1646      1642      1650      1651
      1646      1642      1650      1652      1646      1642      1650      1653
      1646      1642      1654      1655      1646      1642      1654      1656
      1646      1642      1654      1657      1647      1646      1642      1650
      1647      1646      1642      1654      1648      1646      1642      1650
      1648      1646      1642      1654      1649      1646      1642      1650
      1649      1646      1642      1654      1650      1642      1643      1658
      1650      1642      1654      1655      1650      1642      1654      1656
      1650      1642      1654      1657      1651      1650      1642      1654
      1652      1650      1642      1654      1653      1650      1642      1654
      1654      1642      1643      1658      1658      1664      1661      1662
      1658      1664      1661      1663      1658      1664      1661      1665
      1659      1658      1664      1661      1660      1658      1664      1661
      1661      1665      1666      1667      1661      1665      1666      1668
      1661      1665      1666      1669      1662      1661      1665      1666
      1663      1661      1665      1666      1664      1661      1665      1666
      1665      1666      1669      1670      1665      1666      1669      1671
      1665      1666      1669      1677      1666      1669      1671      1672
      1666      1669      1677      1678      1666      1669      1677      1679
      1666      1669      1677      1680      1667      1666      1669      1670
      1667      1666      1669      1671      1667      1666      1669      1677
      1668      1666      1669      1670      1668      1666      1669      1671
      1668      1666      1669      1677      1669      1671      1672      1673
      1669      1671      1672      1674      1669      1677      1680      1681
      1670      1669      1671      1672      1670      1669      1677      1678
      1670      1669      1677      1679      1670      1669      1677      1680
      1671      1669      1677      1678      1671      1669      1677      1679
      1671      1669      1677      1680      1671      1672      1674      1675
      1671      1672      1674      1676      1671      1672      1674      1686
      1672      1671      1669      1677      1672      1674      1686      1687
      1672      1674      1686      1688      1672      1674      1686      1689
      1673      1672      1674      1675      1673      1672      1674      1676
      1673      1672      1674      1686      1674      1686      1689      1690
      1674      1686      1689      1691      1674      1686      1689      1692
      1675      1674      1686      1687      1675      1674      1686      1688
      1675      1674      1686      1689      1676      1674      1686      1687
      1676      1674      1686      1688      1676      1674      1686      1689
      1677      1680      1681      1682      1677      1680      1681      1683
      1678      1677      1680      1681      1679      1677      1680      1681
      1680      1681      1683      1684      1680      1681      1683      1685
      1680      1681      1683      1733      1681      1683      1733      1734
      1681      1683      1733      1735      1681      1683      1733      1736
      1682      1681      1683      1684      1682      1681      1683      1685
      1682      1681      1683      1733      1683      1733      1736      1737
      1683      1733      1736      1738      1683      1733      1736      1739
      1684      1683      1733      1734      1684      1683      1733      1735
      1684      1683      1733      1736      1685      1683      1733      1734
      1685      1683      1733      1735      1685      1683      1733      1736
      1686      1689      1692      1693      1686      1689      1692      1694
      1687      1686      1689      1690      1687      1686      1689      1691
      1687      1686      1689      1692      1688      1686      1689      1690
      1688      1686      1689      1691      1688      1686      1689      1692
      1689      1692      1694      1695      1689      1692      1694      1696
      1690      1689      1692      1693      1690      1689      1692      1694
      1691      1689      1692      1693      1691      1689      1692      1694
      1692      1694      1696      1697      1692      1694      1696      1698
      1692      1694      1696      1699      1693      1692      1694      1695
      1693      1692      1694      1696      1694      1696      1699      1700
      1694      1696      1699      1701      1695      1694      1696      1697
      1695      1694      1696      1698      1695      1694      1696      1699
      1696      1699      1701      1702      1696      1699      1701      1703
      1697      1696      1699      1700      1697      1696      1699      1701
      1698      1696      1699      1700      1698      1696      1699      1701
      1699      1701      1703      1704      1699      1701      1703      1705
      1699      1701      1703      1706      1700      1699      1701      1702
      1700      1699      1701      1703      1701      1703      1706      1707
      1701      1703      1706      1708      1702      1701      1703      1704
      1702      1701      1703      1705      1702      1701      1703      1706
      1703      1706      1708      1709      1703      1706      1708      1710
      1704      1703      1706      1707      1704      1703      1706      1708
      1705      1703      1706      1707      1705      1703      1706      1708
      1706      1708      1710      1711      1706      1708      1710      1712
      1706      1708      1710      1713      1707      1706      1708      1709
      1707      1706      1708      1710      1708      1710      1713      1714
      1708      1710      1713      1715      1709      1708      1710      1711
      1709      1708      1710      1712      1709      1708      1710      1713
      1710      1713      1715      1716      1710      1713      1715      1717
      1711      1710      1713      1714      1711      1710      1713      1715
      1712      1710      1713      1714      1712      1710      1713      1715
      1713      1715      1717      1718      1713      1715      1717      1719
      1713      1715      1717      1720      1714      1713      1715      1716
      1714      1713      1715      1717      1715      1717      1720      1721
      1715      1717      1720      1722      1715      1717      1720      1723
      1716      1715      1717      1718      1716      1715      1717      1719
      1716      1715      1717      1720      1717      1720      1723      1724
      1717      1720      1723      1725      1717      1720      1723      1726
      1718      1717      1720      1721      1718      1717      1720      1722
      1718      1717      1720      1723      1719      1717      1720      1721
      1719      1717      1720      1722      1719      1717      1720      1723
      1720      1723      1726      1727      1720      1723      1726      1728
      1720      1723      1726      1729      1721      1720      1723      1724
      1721      1720      1723      1725      1721      1720      1723      1726
      1722      1720      1723      1724      1722      1720      1723      1725
      1722      1720      1723      1726      1723      1726      1729      1730
      1723      1726      1729      1731      1723      1726      1729      1732
      1724      1723      1726      1727      1724      1723      1726      1728
      1724      1723      1726      1729      1725      1723      1726      1727
      1725      1723      1726      1728      1725      1723      1726      1729
      1727      1726      1729      1730      1727      1726      1729      1731
      1727      1726      1729      1732      1728      1726      1729      1730
      1728      1726      1729      1731      1728      1726      1729      1732
      1733      1736      1739      1740      1733      1736      1739      1741
      1733      1736      1739      1742      1734      1733      1736      1737
      1734      1733      1736      1738      1734      1733      1736      1739
      1735      1733      1736      1737      1735      1733      1736      1738
      1735      1733      1736      1739      1736      1739      1742      1743
      1736      1739      1742      1744      1736      1739      1742      1745
      1737      1736      1739      1740      1737      1736      1739      1741
      1737      1736      1739      1742      1738      1736      1739      1740
      1738      1736      1739      1741      1738      1736      1739      1742
      1739      1742      1745      1746      1739      1742      1745      1747
      1739      1742      1745      1748      1740      1739      1742      1743
      1740      1739      1742      1744      1740      1739      1742      1745
      1741      1739      1742      1743      1741      1739      1742      1744
      1741      1739      1742      1745      1742      1745      1748      1749
      1742      1745      1748      1750      1742      1745      1748      1751
      1743      1742      1745      1746      1743      1742      1745      1747
      1743      1742      1745      1748      1744      1742      1745      1746
      1744      1742      1745      1747      1744      1742      1745      1748
      1745      1748      1751      1752      1745      1748      1751      1753
      1745      1748      1751      1754      1746      1745      1748      1749
      1746      1745      1748      1750      1746      1745      1748      1751
      1747      1745      1748      1749      1747      1745      1748      1750
      1747      1745      1748      1751      1748      1751      1754      1755
      1748      1751      1754      1756      1748      1751      1754      1757
      1749      1748      1751      1752      1749      1748      1751      1753
      1749      1748      1751      1754      1750      1748      1751      1752
      1750      1748      1751      1753      1750      1748      1751      1754
      1751      1754      1757      1758      1751      1754      1757      1759
      1751      1754      1757      1760      1752      1751      1754      1755
      1752      1751      1754      1756      1752      1751      1754      1757
      1753      1751      1754      1755      1753      1751      1754      1756
      1753      1751      1754      1757      1754      1757      1760      1761
      1754      1757      1760      1762      1754      1757      1760      1763
      1755      1754      1757      1758      1755      1754      1757      1759
      1755      1754      1757      1760      1756      1754      1757      1758
      1756      1754      1757      1759      1756      1754      1757      1760
      1757      1760      1763      1764      1757      1760      1763      1765
      1757      1760      1763      1766      1758      1757      1760      1761
      1758      1757      1760      1762      1758      1757      1760      1763
      1759      1757      1760      1761      1759      1757      1760      1762
      1759      1757      1760      1763      1760      1763      1766      1767
      1760      1763      1766      1768      1760      1763      1766      1769
      1761      1760      1763      1764      1761      1760      1763      1765
      1761      1760      1763      1766      1762      1760      1763      1764
      1762      1760      1763      1765      1762      1760      1763      1766
      1763      1766      1769      1770      1763      1766      1769      1771
      1763      1766      1769      1772      1764      1763      1766      1767
      1764      1763      1766      1768      1764      1763      1766      1769
      1765      1763      1766      1767      1765      1763      1766      1768
      1765      1763      1766      1769      1766      1769      1772      1773
      1766      1769      1772      1774      1766      1769      1772      1775
      1767      1766      1769      1770      1767      1766      1769      1771
      1767      1766      1769      1772      1768      1766      1769      1770
      1768      1766      1769      1771      1768      1766      1769      1772
      1769      1772      1775      1776      1769      1772      1775      1777
      1769      1772      1775      1778      1770      1769      1772      1773
      1770      1769      1772      1774      1770      1769      1772      1775
      1771      1769      1772      1773      1771      1769      1772      1774
      1771      1769      1772      1775      1772      1775      1778      1779
      1772      1775      1778      1780      1772      1775      1778      1781
      1773      1772      1775      1776      1773      1772      1775      1777
      1773      1772      1775      1778      1774      1772      1775      1776
      1774      1772      1775      1777      1774      1772      1775      1778
      1776      1775      1778      1779      1776      1775      1778      1780
      1776      1775      1778      1781      1777      1775      1778      1779
      1777      1775      1778      1780      1777      1775      1778      1781
      1782      1795      1798      1799      1782      1795      1798      1800
      1782      1795      1798      1804      1783      1782      1787      1788
      1783      1782      1787      1789      1783      1782      1787      1790
      1783      1782      1791      1792      1783      1782      1791      1793
      1783      1782      1791      1794      1783      1782      1795      1796
      1783      1782      1795      1797      1783      1782      1795      1798
      1784      1783      1782      1787      1784      1783      1782      1791
      1784      1783      1782      1795      1785      1783      1782      1787
      1785      1783      1782      1791      1785      1783      1782      1795
      1786      1783      1782      1787      1786      1783      1782      1791
      1786      1783      1782      1795      1787      1782      1791      1792
      1787      1782      1791      1793      1787      1782      1791      1794
      1787      1782      1795      1796      1787      1782      1795      1797
      1787      1782      1795      1798      1788      1787      1782      1791
      1788      1787      1782      1795      1789      1787      1782      1791
      1789      1787      1782      1795      1790      1787      1782      1791
      1790      1787      1782      1795      1791      1782      1795      1796
      1791      1782      1795      1797      1791      1782      1795      1798
      1792      1791      1782      1795      1793      1791      1782      1795
      1794      1791      1782      1795      1795      1798      1804      1801
      1796      1795      1798      1799      1796      1795      1798      1800
      1796      1795      1798      1804      1797      1795      1798      1799
      1797      1795      1798      1800      1797      1795      1798      1804
      1798      1804      1801      1802      1798      1804      1801      1803
      1798      1804      1801      1805      1799      1798      1804      1801
      1800      1798      1804      1801      1801      1805      1806      1807
      1801      1805      1806      1808      1801      1805      1806      1809
      1802      1801      1805      1806      1803      1801      1805      1806
      1804      1801      1805      1806      1805      1806      1809      1810
      1805      1806      1809      1811      1805      1806      1809      1817
      1806      1809      1811      1812      1806      1809      1817      1818
      1806      1809      1817      1819      1806      1809      1817      1820
      1807      1806      1809      1810      1807      1806      1809      1811
      1807      1806      1809      1817      1808      1806      1809      1810
      1808      1806      1809      1811      1808      1806      1809      1817
      1809      1811      1812      1813      1809      1811      1812      1814
      1809      1817      1820      1821      1810      1809      1811      1812
      1810      1809      1817      1818      1810      1809      1817      1819
      1810      1809      1817      1820      1811      1809      1817      1818
      1811      1809      1817      1819      1811      1809      1817      1820
      1811      1812      1814      1815      1811      1812      1814      1816
      1811      1812      1814      1826      1812      1811      1809      1817
      1812      1814      1826      1827      1812      1814      1826      1828
      1812      1814      1826      1829      1813      1812      1814      1815
      1813      1812      1814      1816      1813      1812      1814      1826
      1814      1826      1829      1830      1814      1826      1829      1831
      1814      1826      1829      1832      1815      1814      1826      1827
      1815      1814      1826      1828      1815      1814      1826      1829
      1816      1814      1826      1827      1816      1814      1826      1828
      1816      1814      1826      1829      1817      1820      1821      1822
      1817      1820      1821      1823      1818      1817      1820      1821
      1819      1817      1820      1821      1820      1821      1823      1824
      1820      1821      1823      1825      1820      1821      1823      1871
      1821      1823      1871      1872      1821      1823      1871      1873
      1821      1823      1871      1874      1822      1821      1823      1824
      1822      1821      1823      1825      1822      1821      1823      1871
      1823      1871      1874      1875      1823      1871      1874      1876
      1823      1871      1874      1877      1824      1823      1871      1872
      1824      1823      1871      1873      1824      1823      1871      1874
      1825      1823      1871      1872      1825      1823      1871      1873
      1825      1823      1871      1874      1826      1829      1832      1833
      1826      1829      1832      1834      1826      1829      1832      1835
      1827      1826      1829      1830      1827      1826      1829      1831
      1827      1826      1829      1832      1828      1826      1829      1830
      1828      1826      1829      1831      1828      1826      1829      1832
      1829      1832      1835      1836      1829      1832      1835      1837
      1829      1832      1835      1838      1830      1829      1832      1833
      1830      1829      1832      1834      1830      1829      1832      1835
      1831      1829      1832      1833      1831      1829      1832      1834
      1831      1829      1832      1835      1832      1835      1838      1839
      1832      1835      1838      1840      1832      1835      1838      1841
      1833      1832      1835      1836      1833      1832      1835      1837
      1833      1832      1835      1838      1834      1832      1835      1836
      1834      1832      1835      1837      1834      1832      1835      1838
      1835      1838      1841      1842      1835      1838      1841      1843
      1835      1838      1841      1844      1836      1835      1838      1839
      1836      1835      1838      1840      1836      1835      1838      1841
      1837      1835      1838      1839      1837      1835      1838      1840
      1837      1835      1838      1841      1838      1841      1844      1845
      1838      1841      1844      1846      1839      1838      1841      1842
      1839      1838      1841      1843      1839      1838      1841      1844
      1840      1838      1841      1842      1840      1838      1841      1843
      1840      1838      1841      1844      1841      1844      1846      1847
      1841      1844      1846      1848      1842      1841      1844      1845
      1842      1841      1844      1846      1843      1841      1844      1845
      1843      1841      1844      1846      1844      1846      1848      1849
      1844      1846      1848      1850      1844      1846      1848      1851
      1845      1844      1846      1847      1845      1844      1846      1848
      1846      1848      1851      1852      1846      1848      1851      1853
      1847      1846      1848      1849      1847      1846      1848      1850
      1847      1846      1848      1851      1848      1851      1853      1854
      1848      1851      1853      1855      1849      1848      1851      1852
      1849      1848      1851      1853      1850      1848      1851      1852
      1850      1848      1851      1853      1851      1853      1855      1856
      1851      1853      1855      1857      1851      1853      1855      1858
      1852      1851      1853      1854      1852      1851      1853      1855
      1853      1855      1858      1859      1853      1855      1858      1860
      1853      1855      1858      1861      1854      1853      1855      1856
      1854      1853      1855      1857      1854      1853      1855      1858
      1855      1858      1861      1862      1855      1858      1861      1863
      1855      1858      1861      1864      1856      1855      1858      1859
      1856      1855      1858      1860      1856      1855      1858      1861
      1857      1855      1858      1859      1857      1855      1858      1860
      1857      1855      1858      1861      1858      1861      1864      1865
      1858      1861      1864      1866      1858      1861      1864      1867
      1859      1858      1861      1862      1859      1858      1861      1863
      1859      1858      1861      1864      1860      1858      1861      1862
      1860      1858      1861      1863      1860      1858      1861      1864
      1861      1864      1867      1868      1861      1864      1867      1869
      1861      1864      1867      1870      1862      1861      1864      1865
      1862      1861      1864      1866      1862      1861      1864      1867
      1863      1861      1864      1865      1863      1861      1864      1866
      1863      1861      1864      1867      1865      1864      1867      1868
      1865      1864      1867      1869      1865      1864      1867      1870
      1866      1864      1867      1868      1866      1864      1867      1869
      1866      1864      1867      1870      1871      1874      1877      1878
      1871      1874      1877      1879      1871      1874      1877      1880
      1872      1871      1874      1875      1872      1871      1874      1876
      1872      1871      1874      1877      1873      1871      1874      1875
      1873      1871      1874      1876      1873      1871      1874      1877
      1874      1877      1880      1881      1874      1877      1880      1882
      1874      1877      1880      1883      1875      1874      1877      1878
      1875      1874      1877      1879      1875      1874      1877      1880
      1876      1874      1877      1878      1876      1874      1877      1879
      1876      1874      1877      1880      1877      1880      1883      1884
      1877      1880      1883      1885      1877      1880      1883      1886
      1878      1877      1880      1881      1878      1877      1880      1882
      1878      1877      1880      1883      1879      1877      1880      1881
      1879      1877      1880      1882      1879      1877      1880      1883
      1880      1883      1886      1887      1880      1883      1886      1888
      1880      1883      1886      1889      1881      1880      1883      1884
      1881      1880      1883      1885      1881      1880      1883      1886
      1882      1880      1883      1884      1882      1880      1883      1885
      1882      1880      1883      1886      1883      1886      1889      1890
      1883      1886      1889      1891      1883      1886      1889      1892
      1884      1883      1886      1887      1884      1883      1886      1888
      1884      1883      1886      1889      1885      1883      1886      1887
      1885      1883      1886      1888      1885      1883      1886      1889
      1886      1889      1892      1893      1886      1889      1892      1894
      1886      1889      1892      1895      1887      1886      1889      1890
      1887      1886      1889      1891      1887      1886      1889      1892
      1888      1886      1889      1890      1888      1886      1889      1891
      1888      1886      1889      1892      1889      1892      1895      1896
      1889      1892      1895      1897      1889      1892      1895      1898
      1890      1889      1892      1893      1890      1889      1892      1894
      1890      1889      1892      1895      1891      1889      1892      1893
      1891      1889      1892      1894      1891      1889      1892      1895
      1892      1895      1898      1899      1892      1895      1898      1900
      1892      1895      1898      1901      1893      1892      1895      1896
      1893      1892      1895      1897      1893      1892      1895      1898
      1894      1892      1895      1896      1894      1892      1895      1897
      1894      1892      1895      1898      1895      1898      1901      1902
      1895      1898      1901      1903      1895      1898      1901      1904
      1896      1895      1898      1899      1896      1895      1898      1900
      1896      1895      1898      1901      1897      1895      1898      1899
      1897      1895      1898      1900      1897      1895      1898      1901
      1898      1901      1904      1905      1898      1901      1904      1906
      1898      1901      1904      1907      1899      1898      1901      1902
      1899      1898      1901      1903      1899      1898      1901      1904
      1900      1898      1901      1902      1900      1898      1901      1903
      1900      1898      1901      1904      1901      1904      1907      1908
      1901      1904      1907      1909      1901      1904      1907      1910
      1902      1901      1904      1905      1902      1901      1904      1906
      1902      1901      1904      1907      1903      1901      1904      1905
      1903      1901      1904      1906      1903      1901      1904      1907
      1904      1907      1910      1911      1904      1907      1910      1912
      1904      1907      1910      1913      1905      1904      1907      1908
      1905      1904      1907      1909      1905      1904      1907      1910
      1906      1904      1907      1908      1906      1904      1907      1909
      1906      1904      1907      1910      1907      1910      1913      1914
      1907      1910      1913      1915      1907      1910      1913      1916
      1908      1907      1910      1911      1908      1907      1910      1912
      1908      1907      1910      1913      1909      1907      1910      1911
      1909      1907      1910      1912      1909      1907      1910      1913
      1910      1913      1916      1917      1910      1913      1916      1918
      1910      1913      1916      1919      1911      1910      1913      1914
      1911      1910      1913      1915      1911      1910      1913      1916
      1912      1910      1913      1914      1912      1910      1913      1915
      1912      1910      1913      1916      1914      1913      1916      1917
      1914      1913      1916      1918      1914      1913      1916      1919
      1915      1913      1916      1917      1915      1913      1916      1918
      1915      1913      1916      1919      1920      1924      1927      1928
      1920      1924      1927      1929      1920      1924      1927      1933
      1921      1920      1924      1925      1921      1920      1924      1926
      1921      1920      1924      1927      1922      1920      1924      1925
      1922      1920      1924      1926      1922      1920      1924      1927
      1923      1920      1924      1925      1923      1920      1924      1926
      1923      1920      1924      1927      1924      1927      1933      1930
      1925      1924      1927      1928      1925      1924      1927      1929
      1925      1924      1927      1933      1926      1924      1927      1928
      1926      1924      1927      1929      1926      1924      1927      1933
      1927      1933      1930      1931      1927      1933      1930      1932
      1927      1933      1930      1934      1928      1927      1933      1930
      1929      1927      1933      1930      1930      1934      1935      1936
      1930      1934      1935      1937      1930      1934      1935      1938
      1931      1930      1934      1935      1932      1930      1934      1935
      1933      1930      1934      1935      1934      1935      1938      1939
      1934      1935      1938      1940      1934      1935      1938      1946
      1935      1938      1940      1941      1935      1938      1946      1947
      1935      1938      1946      1948      1935      1938      1946      1949
      1936      1935      1938      1939      1936      1935      1938      1940
      1936      1935      1938      1946      1937      1935      1938      1939
      1937      1935      1938      1940      1937      1935      1938      1946
      1938      1940      1941      1942      1938      1940      1941      1943
      1938      1946      1949      1950      1939      1938      1940      1941
      1939      1938      1946      1947      1939      1938      1946      1948
      1939      1938      1946      1949      1940      1938      1946      1947
      1940      1938      1946      1948      1940      1938      1946      1949
      1940      1941      1943      1944      1940      1941      1943      1945
      1940      1941      1943      1955      1941      1940      1938      1946
      1941      1943      1955      1956      1941      1943      1955      1957
      1941      1943      1955      1958      1942      1941      1943      1944
      1942      1941      1943      1945      1942      1941      1943      1955
      1943      1955      1958      1959      1943      1955      1958      1960
      1943      1955      1958      1961      1944      1943      1955      1956
      1944      1943      1955      1957      1944      1943      1955      1958
      1945      1943      1955      1956      1945      1943      1955      1957
      1945      1943      1955      1958      1946      1949      1950      1951
      1946      1949      1950      1952      1947      1946      1949      1950
      1948      1946      1949      1950      1949      1950      1952      1953
      1949      1950      1952      1954      1949      1950      1952      2002
      1950      1952      2002      2003      1950      1952      2002      2004
      1950      1952      2002      2005      1951      1950      1952      1953
      1951      1950      1952      1954      1951      1950      1952      2002
      1952      2002      2005      2006      1952      2002      2005      2007
      1952      2002      2005      2008      1953      1952      2002      2003
      1953      1952      2002      2004      1953      1952      2002      2005
      1954      1952      2002      2003      1954      1952      2002      2004
      1954      1952      2002      2005      1955      1958      1961      1962
      1955      1958      1961      1963      1956      1955      1958      1959
      1956      1955      1958      1960      1956      1955      1958      1961
      1957      1955      1958      1959      1957      1955      1958      1960
      1957      1955      1958      1961      1958      1961      1963      1964
      1958      1961      1963      1965      1959      1958      1961      1962
      1959      1958      1961      1963      1960      1958      1961      1962
      1960      1958      1961      1963      1961      1963      1965      1966
      1961      1963      1965      1967      1961      1963      1965      1968
      1962      1961      1963      1964      1962      1961      1963      1965
      1963      1965      1968      1969      1963      1965      1968      1970
      1964      1963      1965      1966      1964      1963      1965      1967
      1964      1963      1965      1968      1965      1968      1970      1971
      1965      1968      1970      1972      1966      1965      1968      1969
      1966      1965      1968      1970      1967      1965      1968      1969
      1967      1965      1968      1970      1968      1970      1972      1973
      1968      1970      1972      1974      1968      1970      1972      1975
      1969      1968      1970      1971      1969      1968      1970      1972
      1970      1972      1975      1976      1970      1972      1975      1977
      1971      1970      1972      1973      1971      1970      1972      1974
      1971      1970      1972      1975      1972      1975      1977      1978
      1972      1975      1977      1979      1973      1972      1975      1976
      1973      1972      1975      1977      1974      1972      1975      1976
      1974      1972      1975      1977      1975      1977      1979      1980
      1975      1977      1979      1981      1975      1977      1979      1982
      1976      1975      1977      1978      1976      1975      1977      1979
      1977      1979      1982      1983      1977      1979      1982      1984
      1978      1977      1979      1980      1978      1977      1979      1981
      1978      1977      1979      1982      1979      1982      1984      1985
      1979      1982      1984      1986      1980      1979      1982      1983
      1980      1979      1982      1984      1981      1979      1982      1983
      1981      1979      1982      1984      1982      1984      1986      1987
      1982      1984      1986      1988      1982      1984      1986      1989
      1983      1982      1984      1985      1983      1982      1984      1986
      1984      1986      1989      1990      1984      1986      1989      1991
      1984      1986      1989      1992      1985      1984      1986      1987
      1985      1984      1986      1988      1985      1984      1986      1989
      1986      1989      1992      1993      1986      1989      1992      1994
      1986      1989      1992      1995      1987      1986      1989      1990
      1987      1986      1989      1991      1987      1986      1989      1992
      1988      1986      1989      1990      1988      1986      1989      1991
      1988      1986      1989      1992      1989      1992      1995      1996
      1989      1992      1995      1997      1989      1992      1995      1998
      1990      1989      1992      1993      1990      1989      1992      1994
      1990      1989      1992      1995      1991      1989      1992      1993
      1991      1989      1992      1994      1991      1989      1992      1995
      1992      1995      1998      1999      1992      1995      1998      2000
      1992      1995      1998      2001      1993      1992      1995      1996
      1993      1992      1995      1997      1993      1992      1995      1998
      1994      1992      1995      1996      1994      1992      1995      1997
      1994      1992      1995      1998      1996      1995      1998      1999
      1996      1995      1998      2000      1996      1995      1998      2001
      1997      1995      1998      1999      1997      1995      1998      2000
      1997      1995      1998      2001      2002      2005      2008      2009
      2002      2005      2008      2010      2002      2005      2008      2011
      2003      2002      2005      2006      2003      2002      2005      2007
      2003      2002      2005      2008      2004      2002      2005      2006
      2004      2002      2005      2007      2004      2002      2005      2008
      2005      2008      2011      2012      2005      2008      2011      2013
      2005      2008      2011      2014      2006      2005      2008      2009
      2006      2005      2008      2010      2006      2005      2008      2011
      2007      2005      2008      2009      2007      2005      2008      2010
      2007      2005      2008      2011      2008      2011      2014      2015
      2008      2011      2014      2016      2008      2011      2014      2017
      2009      2008      2011      2012      2009      2008      2011      2013
      2009      2008      2011      2014      2010      2008      2011      2012
      2010      2008      2011      2013      2010      2008      2011      2014
      2011      2014      2017      2018      2011      2014      2017      2019
      2011      2014      2017      2020      2012      2011      2014      2015
      2012      2011      2014      2016      2012      2011      2014      2017
      2013      2011      2014      2015      2013      2011      2014      2016
      2013      2011      2014      2017      2014      2017      2020      2021
      2014      2017      2020      2022      2014      2017      2020      2023
      2015      2014      2017      2018      2015      2014      2017      2019
      2015      2014      2017      2020      2016      2014      2017      2018
      2016      2014      2017      2019      2016      2014      2017      2020
      2017      2020      2023      2024      2017      2020      2023      2025
      2017      2020      2023      2026      2018      2017      2020      2021
      2018      2017      2020      2022      2018      2017      2020      2023
      2019      2017      2020      2021      2019      2017      2020      2022
      2019      2017      2020      2023      2020      2023      2026      2027
      2020      2023      2026      2028      2020      2023      2026      2029
      2021      2020      2023      2024      2021      2020      2023      2025
      2021      2020      2023      2026      2022      2020      2023      2024
      2022      2020      2023      2025      2022      2020      2023      2026
      2023      2026      2029      2030      2023      2026      2029      2031
      2023      2026      2029      2032      2024      2023      2026      2027
      2024      2023      2026      2028      2024      2023      2026      2029
      2025      2023      2026      2027      2025      2023      2026      2028
      2025      2023      2026      2029      2026      2029      2032      2033
      2026      2029      2032      2034      2026      2029      2032      2035
      2027      2026      2029      2030      2027      2026      2029      2031
      2027      2026      2029      2032      2028      2026      2029      2030
      2028      2026      2029      2031      2028      2026      2029      2032
      2029      2032      2035      2036      2029      2032      2035      2037
      2029      2032      2035      2038      2030      2029      2032      2033
      2030      2029      2032      2034      2030      2029      2032      2035
      2031      2029      2032      2033      2031      2029      2032      2034
      2031      2029      2032      2035      2032      2035      2038      2039
      2032      2035      2038      2040      2032      2035      2038      2041
      2033      2032      2035      2036      2033      2032      2035      2037
      2033      2032      2035      2038      2034      2032      2035      2036
      2034      2032      2035      2037      2034      2032      2035      2038
      2035      2038      2041      2042      2035      2038      2041      2043
      2035      2038      2041      2044      2036      2035      2038      2039
      2036      2035      2038      2040      2036      2035      2038      2041
      2037      2035      2038      2039      2037      2035      2038      2040
      2037      2035      2038      2041      2038      2041      2044      2045
      2038      2041      2044      2046      2038      2041      2044      2047
      2039      2038      2041      2042      2039      2038      2041      2043
      2039      2038      2041      2044      2040      2038      2041      2042
      2040      2038      2041      2043      2040      2038      2041      2044
      2041      2044      2047      2048      2041      2044      2047      2049
      2041      2044      2047      2050      2042      2041      2044      2045
      2042      2041      2044      2046      2042      2041      2044      2047
      2043      2041      2044      2045      2043      2041      2044      2046
      2043      2041      2044      2047      2045      2044      2047      2048
      2045      2044      2047      2049      2045      2044      2047      2050
      2046      2044      2047      2048      2046      2044      2047      2049
      2046      2044      2047      2050      2051      2055      2058      2059
      2051      2055      2058      2089      2051      2097      2094      2089
      2051      2097      2094      2095      2051      2097      2094      2096
      2052      2051      2053      2054      2052      2051      2055      2056
      2052      2051      2055      2057      2052      2051      2055      2058
      2052      2051      2097      2094      2052      2051      2097      2098
      2052      2051      2097      2099      2053      2051      2055      2056
      2053      2051      2055      2057      2053      2051      2055      2058
      2053      2051      2097      2094      2053      2051      2097      2098
      2053      2051      2097      2099      2054      2053      2051      2055
      2054      2053      2051      2097      2055      2051      2097      2094
      2055      2051      2097      2098      2055      2051      2097      2099
      2055      2058      2059      2060      2055      2058      2059      2061
      2055      2058      2089      2087      2055      2058      2089      2090
      2055      2058      2089      2094      2056      2055      2051      2097
      2056      2055      2058      2059      2056      2055      2058      2089
      2057      2055      2051      2097      2057      2055      2058      2059
      2057      2055      2058      2089      2058      2055      2051      2097
      2058      2059      2061      2062      2058      2059      2061      2063
      2058      2059      2061      2064      2058      2089      2087      2064
      2058      2089      2087      2084      2058      2089      2087      2088
      2058      2089      2090      2091      2058      2089      2090      2092
      2058      2089      2090      2093      2058      2089      2094      2095
      2058      2089      2094      2096      2058      2089      2094      2097
      2059      2058      2089      2087      2059      2058      2089      2090
      2059      2058      2089      2094      2059      2061      2064      2065
      2059      2061      2064      2066      2059      2061      2064      2087
      2060      2059      2058      2089      2060      2059      2061      2062
      2060      2059      2061      2063      2060      2059      2061      2064
      2061      2059      2058      2089      2061      2064      2066      2067
      2061      2064      2066      2068      2061      2064      2066      2076
      2061      2064      2087      2084      2061      2064      2087      2088
      2061      2064      2087      2089      2062      2061      2064      2065
      2062      2061      2064      2066      2062      2061      2064      2087
      2063      2061      2064      2065      2063      2061      2064      2066
      2063      2061      2064      2087      2064      2066      2068      2069
      2064      2066      2068      2070      2064      2066      2068      2071
      2064      2066      2076      2074      2064      2066      2076      2077
      2064      2066      2076      2081      2064      2087      2084      2081
      2064      2087      2084      2085      2064      2087      2084      2086
      2064      2087      2089      2090      2064      2087      2089      2094
      2065      2064      2066      2067      2065      2064      2066      2068
      2065      2064      2066      2076      2065      2064      2087      2084
      2065      2064      2087      2088      2065      2064      2087      2089
      2066      2064      2087      2084      2066      2064      2087      2088
      2066      2064      2087      2089      2066      2068      2071      2072
      2066      2068      2071      2073      2066      2068      2071      2074
      2066      2076      2074      2071      2066      2076      2074      2075
      2066      2076      2074      2100      2066      2076      2077      2078
      2066      2076      2077      2079      2066      2076      2077      2080
      2066      2076      2081      2082      2066      2076      2081      2083
      2066      2076      2081      2084      2067      2066      2064      2087
      2067      2066      2068      2069      2067      2066      2068      2070
      2067      2066      2068      2071      2067      2066      2076      2074
      2067      2066      2076      2077      2067      2066      2076      2081
      2068      2066      2064      2087      2068      2066      2076      2074
      2068      2066      2076      2077      2068      2066      2076      2081
      2068      2071      2074      2075      2068      2071      2074      2076
      2068      2071      2074      2100      2069      2068      2066      2076
      2069      2068      2071      2072      2069      2068      2071      2073
      2069      2068      2071      2074      2070      2068      2066      2076
      2070      2068      2071      2072      2070      2068      2071      2073
      2070      2068      2071      2074      2071      2068      2066      2076
      2071      2074      2076      2077      2071      2074      2076      2081
      2071      2074      2100      2101      2071      2074      2100      2102
      2071      2074      2100      2106      2072      2071      2074      2075
      2072      2071      2074      2076      2072      2071      2074      2100
      2073      2071      2074      2075      2073      2071      2074      2076
      2073      2071      2074      2100      2074      2076      2077      2078
      2074      2076      2077      2079      2074      2076      2077      2080
      2074      2076      2081      2082      2074      2076      2081      2083
      2074      2076      2081      2084      2074      2100      2102      2103
      2074      2100      2102      2104      2074      2100      2102      2105
      2074      2100      2106      2107      2074      2100      2106      2108
      2074      2100      2106      2109      2075      2074      2076      2077
      2075      2074      2076      2081      2075      2074      2100      2101
      2075      2074      2100      2102      2075      2074      2100      2106
      2076      2066      2064      2087      2076      2074      2100      2101
      2076      2074      2100      2102      2076      2074      2100      2106
      2076      2081      2084      2085      2076      2081      2084      2086
      2076      2081      2084      2087      2077      2076      2074      2100
      2077      2076      2081      2082      2077      2076      2081      2083
      2077      2076      2081      2084      2078      2077      2076      2081
      2079      2077      2076      2081      2080      2077      2076      2081
      2081      2076      2074      2100      2081      2084      2087      2088
      2081      2084      2087      2089      2082      2081      2084      2085
      2082      2081      2084      2086      2082      2081      2084      2087
      2083      2081      2084      2085      2083      2081      2084      2086
      2083      2081      2084      2087      2084      2087      2089      2090
      2084      2087      2089      2094      2085      2084      2087      2088
      2085      2084      2087      2089      2086      2084      2087      2088
      2086      2084      2087      2089      2087      2089      2090      2091
      2087      2089      2090      2092      2087      2089      2090      2093
      2087      2089      2094      2095      2087      2089      2094      2096
      2087      2089      2094      2097      2088      2087      2089      2090
      2088      2087      2089      2094      2089      2094      2097      2098
      2089      2094      2097      2099      2090      2089      2094      2095
      2090      2089      2094      2096      2090      2089      2094      2097
      2091      2090      2089      2094      2092      2090      2089      2094
      2093      2090      2089      2094      2095      2094      2097      2098
      2095      2094      2097      2099      2096      2094      2097      2098
      2096      2094      2097      2099      2100      2106      2109      2110
      2100      2106      2109      2111      2100      2106      2109      2112
      2101      2100      2102      2103      2101      2100      2102      2104
      2101      2100      2102      2105      2101      2100      2106      2107
      2101      2100      2106      2108      2101      2100      2106      2109
      2102      2100      2106      2107      2102      2100      2106      2108
      2102      2100      2106      2109      2103      2102      2100      2106
      2104      2102      2100      2106      2105      2102      2100      2106
      2106      2109      2112      2113      2106      2109      2112      2114
      2106      2109      2112      2115      2107      2106      2109      2110
      2107      2106      2109      2111      2107      2106      2109      2112
      2108      2106      2109      2110      2108      2106      2109      2111
      2108      2106      2109      2112      2109      2112      2115      2116
      2109      2112      2115      2117      2109      2112      2115      2121
      2110      2109      2112      2113      2110      2109      2112      2114
      2110      2109      2112      2115      2111      2109      2112      2113
      2111      2109      2112      2114      2111      2109      2112      2115
      2112      2115      2117      2118      2112      2115      2117      2119
      2112      2115      2117      2120      2112      2115      2121      2122
      2112      2115      2121      2123      2112      2115      2121      2124
      2113      2112      2115      2116      2113      2112      2115      2117
      2113      2112      2115      2121      2114      2112      2115      2116
      2114      2112      2115      2117      2114      2112      2115      2121
      2116      2115      2117      2118      2116      2115      2117      2119
      2116      2115      2117      2120      2116      2115      2121      2122
      2116      2115      2121      2123      2116      2115      2121      2124
      2117      2115      2121      2122      2117      2115      2121      2123
      2117      2115      2121      2124      2118      2117      2115      2121
      2119      2117      2115      2121      2120      2117      2115      2121
      2125      2129      2132      2133      2125      2129      2132      2163
      2125      2171      2168      2163      2125      2171      2168      2169
      2125      2171      2168      2170      2126      2125      2127      2128
      2126      2125      2129      2130      2126      2125      2129      2131
      2126      2125      2129      2132      2126      2125      2171      2168
      2126      2125      2171      2172      2126      2125      2171      2173
      2127      2125      2129      2130      2127      2125      2129      2131
      2127      2125      2129      2132      2127      2125      2171      2168
      2127      2125      2171      2172      2127      2125      2171      2173
      2128      2127      2125      2129      2128      2127      2125      2171
      2129      2125      2171      2168      2129      2125      2171      2172
      2129      2125      2171      2173      2129      2132      2133      2134
      2129      2132      2133      2135      2129      2132      2163      2161
      2129      2132      2163      2164      2129      2132      2163      2168
      2130      2129      2125      2171      2130      2129      2132      2133
      2130      2129      2132      2163      2131      2129      2125      2171
      2131      2129      2132      2133      2131      2129      2132      2163
      2132      2129      2125      2171      2132      2133      2135      2136
      2132      2133      2135      2137      2132      2133      2135      2138
      2132      2163      2161      2138      2132      2163      2161      2158
      2132      2163      2161      2162      2132      2163      2164      2165
      2132      2163      2164      2166      2132      2163      2164      2167
      2132      2163      2168      2169      2132      2163      2168      2170
      2132      2163      2168      2171      2133      2132      2163      2161
      2133      2132      2163      2164      2133      2132      2163      2168
      2133      2135      2138      2139      2133      2135      2138      2140
      2133      2135      2138      2161      2134      2133      2132      2163
      2134      2133      2135      2136      2134      2133      2135      2137
      2134      2133      2135      2138      2135      2133      2132      2163
      2135      2138      2140      2141      2135      2138      2140      2142
      2135      2138      2140      2150      2135      2138      2161      2158
      2135      2138      2161      2162      2135      2138      2161      2163
      2136      2135      2138      2139      2136      2135      2138      2140
      2136      2135      2138      2161      2137      2135      2138      2139
      2137      2135      2138      2140      2137      2135      2138      2161
      2138      2140      2142      2143      2138      2140      2142      2144
      2138      2140      2142      2145      2138      2140      2150      2148
      2138      2140      2150      2151      2138      2140      2150      2155
      2138      2161      2158      2155      2138      2161      2158      2159
      2138      2161      2158      2160      2138      2161      2163      2164
      2138      2161      2163      2168      2139      2138      2140      2141
      2139      2138      2140      2142      2139      2138      2140      2150
      2139      2138      2161      2158      2139      2138      2161      2162
      2139      2138      2161      2163      2140      2138      2161      2158
      2140      2138      2161      2162      2140      2138      2161      2163
      2140      2142      2145      2146      2140      2142      2145      2147
      2140      2142      2145      2148      2140      2150      2148      2145
      2140      2150      2148      2149      2140      2150      2148      2174
      2140      2150      2151      2152      2140      2150      2151      2153
      2140      2150      2151      2154      2140      2150      2155      2156
      2140      2150      2155      2157      2140      2150      2155      2158
      2141      2140      2138      2161      2141      2140      2142      2143
      2141      2140      2142      2144      2141      2140      2142      2145
      2141      2140      2150      2148      2141      2140      2150      2151
      2141      2140      2150      2155      2142      2140      2138      2161
      2142      2140      2150      2148      2142      2140      2150      2151
      2142      2140      2150      2155      2142      2145      2148      2149
      2142      2145      2148      2150      2142      2145      2148      2174
      2143      2142      2140      2150      2143      2142      2145      2146
      2143      2142      2145      2147      2143      2142      2145      2148
      2144      2142      2140      2150      2144      2142      2145      2146
      2144      2142      2145      2147      2144      2142      2145      2148
      2145      2142      2140      2150      2145      2148      2150      2151
      2145      2148      2150      2155      2145      2148      2174      2175
      2145      2148      2174      2176      2145      2148      2174      2180
      2146      2145      2148      2149      2146      2145      2148      2150
      2146      2145      2148      2174      2147      2145      2148      2149
      2147      2145      2148      2150      2147      2145      2148      2174
      2148      2150      2151      2152      2148      2150      2151      2153
      2148      2150      2151      2154      2148      2150      2155      2156
      2148      2150      2155      2157      2148      2150      2155      2158
      2148      2174      2176      2177      2148      2174      2176      2178
      2148      2174      2176      2179      2148      2174      2180      2181
      2148      2174      2180      2182      2148      2174      2180      2183
      2149      2148      2150      2151      2149      2148      2150      2155
      2149      2148      2174      2175      2149      2148      2174      2176
      2149      2148      2174      2180      2150      2140      2138      2161
      2150      2148      2174      2175      2150      2148      2174      2176
      2150      2148      2174      2180      2150      2155      2158      2159
      2150      2155      2158      2160      2150      2155      2158      2161
      2151      2150      2148      2174      2151      2150      2155      2156
      2151      2150      2155      2157      2151      2150      2155      2158
      2152      2151      2150      2155      2153      2151      2150      2155
      2154      2151      2150      2155      2155      2150      2148      2174
      2155      2158      2161      2162      2155      2158      2161      2163
      2156      2155      2158      2159      2156      2155      2158      2160
      2156      2155      2158      2161      2157      2155      2158      2159
      2157      2155      2158      2160      2157      2155      2158      2161
      2158      2161      2163      2164      2158      2161      2163      2168
      2159      2158      2161      2162      2159      2158      2161      2163
      2160      2158      2161      2162      2160      2158      2161      2163
      2161      2163      2164      2165      2161      2163      2164      2166
      2161      2163      2164      2167      2161      2163      2168      2169
      2161      2163      2168      2170      2161      2163      2168      2171
      2162      2161      2163      2164      2162      2161      2163      2168
      2163      2168      2171      2172      2163      2168      2171      2173
      2164      2163      2168      2169      2164      2163      2168      2170
      2164      2163      2168      2171      2165      2164      2163      2168
      2166      2164      2163      2168      2167      2164      2163      2168
      2169      2168      2171      2172      2169      2168      2171      2173
      2170      2168      2171      2172      2170      2168      2171      2173
      2174      2180      2183      2184      2174      2180      2183      2185
      2174      2180      2183      2186      2175      2174      2176      2177
      2175      2174      2176      2178      2175      2174      2176      2179
      2175      2174      2180      2181      2175      2174      2180      2182
      2175      2174      2180      2183      2176      2174      2180      2181
      2176      2174      2180      2182      2176      2174      2180      2183
      2177      2176      2174      2180      2178      2176      2174      2180
      2179      2176      2174      2180      2180      2183      2186      2187
      2180      2183      2186      2188      2180      2183      2186      2189
      2181      2180      2183      2184      2181      2180      2183      2185
      2181      2180      2183      2186      2182      2180      2183      2184
      2182      2180      2183      2185      2182      2180      2183      2186
      2183      2186      2189      2190      2183      2186      2189      2191
      2183      2186      2189      2195      2184      2183      2186      2187
      2184      2183      2186      2188      2184      2183      2186      2189
      2185      2183      2186      2187      2185      2183      2186      2188
      2185      2183      2186      2189      2186      2189      2191      2192
      2186      2189      2191      2193      2186      2189      2191      2194
      2186      2189      2195      2196      2186      2189      2195      2197
      2186      2189      2195      2198      2187      2186      2189      2190
      2187      2186      2189      2191      2187      2186      2189      2195
      2188      2186      2189      2190      2188      2186      2189      2191
      2188      2186      2189      2195      2190      2189      2191      2192
      2190      2189      2191      2193      2190      2189      2191      2194
      2190      2189      2195      2196      2190      2189      2195      2197
      2190      2189      2195      2198      2191      2189      2195      2196
      2191      2189      2195      2197      2191      2189      2195      2198
      2192      2191      2189      2195      2193      2191      2189      2195
      2194      2191      2189      2195      2199      2212      2215      2216
      2199      2212      2215      2217      2199      2212      2215      2222
      2200      2199      2204      2205      2200      2199      2204      2206
      2200      2199      2204      2207      2200      2199      2208      2209
      2200      2199      2208      2210      2200      2199      2208      2211
      2200      2199      2212      2213      2200      2199      2212      2214
      2200      2199      2212      2215      2201      2200      2199      2204
      2201      2200      2199      2208      2201      2200      2199      2212
      2202      2200      2199      2204      2202      2200      2199      2208
      2202      2200      2199      2212      2203      2200      2199      2204
      2203      2200      2199      2208      2203      2200      2199      2212
      2204      2199      2208      2209      2204      2199      2208      2210
      2204      2199      2208      2211      2204      2199      2212      2213
      2204      2199      2212      2214      2204      2199      2212      2215
      2205      2204      2199      2208      2205      2204      2199      2212
      2206      2204      2199      2208      2206      2204      2199      2212
      2207      2204      2199      2208      2207      2204      2199      2212
      2208      2199      2212      2213      2208      2199      2212      2214
      2208      2199      2212      2215      2209      2208      2199      2212
      2210      2208      2199      2212      2211      2208      2199      2212
      2212      2215      2222      2218      2213      2212      2215      2216
      2213      2212      2215      2217      2213      2212      2215      2222
      2214      2212      2215      2216      2214      2212      2215      2217
      2214      2212      2215      2222      2215      2222      2218      2219
      2215      2222      2218      2220      2215      2222      2218      2221
      2216      2215      2222      2218      2217      2215      2222      2218
      2218      2221      2223      2224      2218      2221      2223      2225
      2218      2221      2223      2228      2219      2218      2221      2223
      2220      2218      2221      2223      2221      2223      2228      2226
      2221      2223      2228      2229      2221      2223      2228      2230
      2222      2218      2221      2223      2223      2228      2226      2227
      2223      2228      2226      2278      2223      2228      2230      2231
      2223      2228      2230      2232      2223      2228      2230      2234
      2224      2223      2228      2226      2224      2223      2228      2229
      2224      2223      2228      2230      2225      2223      2228      2226
      2225      2223      2228      2229      2225      2223      2228      2230
      2226      2228      2230      2231      2226      2228      2230      2232
      2226      2228      2230      2234      2226      2278      2280      2281
      2226      2278      2280      2282      2226      2278      2280      2283
      2227      2226      2228      2229      2227      2226      2228      2230
      2227      2226      2278      2279      2227      2226      2278      2280
      2228      2226      2278      2279      2228      2226      2278      2280
      2228      2230      2232      2233      2228      2230      2234      2235
      2228      2230      2234      2236      2229      2228      2226      2278
      2229      2228      2230      2231      2229      2228      2230      2232
      2229      2228      2230      2234      2230      2228      2226      2278
      2230      2234      2236      2237      2230      2234      2236      2238
      2231      2230      2232      2233      2231      2230      2234      2235
      2231      2230      2234      2236      2232      2230      2234      2235
      2232      2230      2234      2236      2233      2232      2230      2234
      2234      2236      2238      2239      2234      2236      2238      2240
      2234      2236      2238      2241      2235      2234      2236      2237
      2235      2234      2236      2238      2236      2238      2241      2242
      2236      2238      2241      2243      2236      2238      2241      2244
      2237      2236      2238      2239      2237      2236      2238      2240
      2237      2236      2238      2241      2238      2241      2244      2245
      2238      2241      2244      2246      2238      2241      2244      2247
      2239      2238      2241      2242      2239      2238      2241      2243
      2239      2238      2241      2244      2240      2238      2241      2242
      2240      2238      2241      2243      2240      2238      2241      2244
      2241      2244      2247      2248      2241      2244      2247      2249
      2241      2244      2247      2250      2242      2241      2244      2245
      2242      2241      2244      2246      2242      2241      2244      2247
      2243      2241      2244      2245      2243      2241      2244      2246
      2243      2241      2244      2247      2244      2247      2250      2251
      2244      2247      2250      2252      2244      2247      2250      2253
      2245      2244      2247      2248      2245      2244      2247      2249
      2245      2244      2247      2250      2246      2244      2247      2248
      2246      2244      2247      2249      2246      2244      2247      2250
      2247      2250      2253      2254      2247      2250      2253      2255
      2247      2250      2253      2256      2248      2247      2250      2251
      2248      2247      2250      2252      2248      2247      2250      2253
      2249      2247      2250      2251      2249      2247      2250      2252
      2249      2247      2250      2253      2250      2253      2256      2257
      2250      2253      2256      2258      2250      2253      2256      2259
      2251      2250      2253      2254      2251      2250      2253      2255
      2251      2250      2253      2256      2252      2250      2253      2254
      2252      2250      2253      2255      2252      2250      2253      2256
      2253      2256      2259      2260      2253      2256      2259      2261
      2253      2256      2259      2262      2254      2253      2256      2257
      2254      2253      2256      2258      2254      2253      2256      2259
      2255      2253      2256      2257      2255      2253      2256      2258
      2255      2253      2256      2259      2256      2259      2262      2263
      2256      2259      2262      2264      2256      2259      2262      2265
      2257      2256      2259      2260      2257      2256      2259      2261
      2257      2256      2259      2262      2258      2256      2259      2260
      2258      2256      2259      2261      2258      2256      2259      2262
      2259      2262      2265      2266      2259      2262      2265      2267
      2259      2262      2265      2268      2260      2259      2262      2263
      2260      2259      2262      2264      2260      2259      2262      2265
      2261      2259      2262      2263      2261      2259      2262      2264
      2261      2259      2262      2265      2262      2265      2268      2269
      2262      2265      2268      2270      2262      2265      2268      2271
      2263      2262      2265      2266      2263      2262      2265      2267
      2263      2262      2265      2268      2264      2262      2265      2266
      2264      2262      2265      2267      2264      2262      2265      2268
      2265      2268      2271      2272      2265      2268      2271      2273
      2265      2268      2271      2274      2266      2265      2268      2269
      2266      2265      2268      2270      2266      2265      2268      2271
      2267      2265      2268      2269      2267      2265      2268      2270
      2267      2265      2268      2271      2268      2271      2274      2275
      2268      2271      2274      2276      2268      2271      2274      2277
      2269      2268      2271      2272      2269      2268      2271      2273
      2269      2268      2271      2274      2270      2268      2271      2272
      2270      2268      2271      2273      2270      2268      2271      2274
      2272      2271      2274      2275      2272      2271      2274      2276
      2272      2271      2274      2277      2273      2271      2274      2275
      2273      2271      2274      2276      2273      2271      2274      2277
      2278      2280      2283      2284      2278      2280      2283      2285
      2278      2280      2283      2286      2279      2278      2280      2281
      2279      2278      2280      2282      2279      2278      2280      2283
      2280      2283      2286      2287      2280      2283      2286      2288
      2280      2283      2286      2289      2281      2280      2283      2284
      2281      2280      2283      2285      2281      2280      2283      2286
      2282      2280      2283      2284      2282      2280      2283      2285
      2282      2280      2283      2286      2283      2286      2289      2290
      2283      2286      2289      2291      2283      2286      2289      2292
      2284      2283      2286      2287      2284      2283      2286      2288
      2284      2283      2286      2289      2285      2283      2286      2287
      2285      2283      2286      2288      2285      2283      2286      2289
      2286      2289      2292      2293      2286      2289      2292      2294
      2286      2289      2292      2295      2287      2286      2289      2290
      2287      2286      2289      2291      2287      2286      2289      2292
      2288      2286      2289      2290      2288      2286      2289      2291
      2288      2286      2289      2292      2289      2292      2295      2296
      2289      2292      2295      2297      2289      2292      2295      2298
      2290      2289      2292      2293      2290      2289      2292      2294
      2290      2289      2292      2295      2291      2289      2292      2293
      2291      2289      2292      2294      2291      2289      2292      2295
      2292      2295      2298      2299      2292      2295      2298      2300
      2292      2295      2298      2301      2293      2292      2295      2296
      2293      2292      2295      2297      2293      2292      2295      2298
      2294      2292      2295      2296      2294      2292      2295      2297
      2294      2292      2295      2298      2295      2298      2301      2302
      2295      2298      2301      2303      2296      2295      2298      2299
      2296      2295      2298      2300      2296      2295      2298      2301
      2297      2295      2298      2299      2297      2295      2298      2300
      2297      2295      2298      2301      2298      2301      2303      2304
      2298      2301      2303      2305      2299      2298      2301      2302
      2299      2298      2301      2303      2300      2298      2301      2302
      2300      2298      2301      2303      2301      2303      2305      2306
      2301      2303      2305      2307      2301      2303      2305      2308
      2302      2301      2303      2304      2302      2301      2303      2305
      2303      2305      2308      2309      2303      2305      2308      2310
      2303      2305      2308      2311      2304      2303      2305      2306
      2304      2303      2305      2307      2304      2303      2305      2308
      2305      2308      2311      2312      2305      2308      2311      2313
      2305      2308      2311      2314      2306      2305      2308      2309
      2306      2305      2308      2310      2306      2305      2308      2311
      2307      2305      2308      2309      2307      2305      2308      2310
      2307      2305      2308      2311      2308      2311      2314      2315
      2308      2311      2314      2316      2308      2311      2314      2317
      2309      2308      2311      2312      2309      2308      2311      2313
      2309      2308      2311      2314      2310      2308      2311      2312
      2310      2308      2311      2313      2310      2308      2311      2314
      2311      2314      2317      2318      2311      2314      2317      2319
      2311      2314      2317      2320      2312      2311      2314      2315
      2312      2311      2314      2316      2312      2311      2314      2317
      2313      2311      2314      2315      2313      2311      2314      2316
      2313      2311      2314      2317      2314      2317      2320      2321
      2314      2317      2320      2322      2314      2317      2320      2323
      2315      2314      2317      2318      2315      2314      2317      2319
      2315      2314      2317      2320      2316      2314      2317      2318
      2316      2314      2317      2319      2316      2314      2317      2320
      2317      2320      2323      2324      2317      2320      2323      2325
      2317      2320      2323      2326      2318      2317      2320      2321
      2318      2317      2320      2322      2318      2317      2320      2323
      2319      2317      2320      2321      2319      2317      2320      2322
      2319      2317      2320      2323      2320      2323      2326      2327
      2320      2323      2326      2328      2320      2323      2326      2329
      2321      2320      2323      2324      2321      2320      2323      2325
      2321      2320      2323      2326      2322      2320      2323      2324
      2322      2320      2323      2325      2322      2320      2323      2326
      2324      2323      2326      2327      2324      2323      2326      2328
      2324      2323      2326      2329      2325      2323      2326      2327
      2325      2323      2326      2328      2325      2323      2326      2329
      2330      2331      2346      2347      2330      2331      2346      2348
      2330      2331      2346      2352      2331      2330      2334      2335
      2331      2330      2334      2336      2331      2330      2334      2337
      2331      2330      2338      2339      2331      2330      2338      2340
      2331      2330      2338      2341      2331      2330      2342      2343
      2331      2330      2342      2344      2331      2330      2342      2345
      2331      2346      2352      2349      2332      2331      2330      2334
      2332      2331      2330      2338      2332      2331      2330      2342
      2332      2331      2346      2347      2332      2331      2346      2348
      2332      2331      2346      2352      2333      2331      2330      2334
      2333      2331      2330      2338      2333      2331      2330      2342
      2333      2331      2346      2347      2333      2331      2346      2348
      2333      2331      2346      2352      2334      2330      2331      2346
      2334      2330      2338      2339      2334      2330      2338      2340
      2334      2330      2338      2341      2334      2330      2342      2343
      2334      2330      2342      2344      2334      2330      2342      2345
      2335      2334      2330      2338      2335      2334      2330      2342
      2336      2334      2330      2338      2336      2334      2330      2342
      2337      2334      2330      2338      2337      2334      2330      2342
      2338      2330      2331      2346      2338      2330      2342      2343
      2338      2330      2342      2344      2338      2330      2342      2345
      2339      2338      2330      2342      2340      2338      2330      2342
      2341      2338      2330      2342      2342      2330      2331      2346
      2346      2352      2349      2350      2346      2352      2349      2351
      2346      2352      2349      2353      2347      2346      2352      2349
      2348      2346      2352      2349      2349      2353      2354      2355
      2349      2353      2354      2356      2349      2353      2354      2357
      2350      2349      2353      2354      2351      2349      2353      2354
      2352      2349      2353      2354      2353      2354      2357      2358
      2353      2354      2357      2359      2353      2354      2357      2365
      2354      2357      2359      2360      2354      2357      2365      2366
      2354      2357      2365      2367      2354      2357      2365      2368
      2355      2354      2357      2358      2355      2354      2357      2359
      2355      2354      2357      2365      2356      2354      2357      2358
      2356      2354      2357      2359      2356      2354      2357      2365
      2357      2359      2360      2361      2357      2359      2360      2362
      2357      2365      2368      2369      2358      2357      2359      2360
      2358      2357      2365      2366      2358      2357      2365      2367
      2358      2357      2365      2368      2359      2357      2365      2366
      2359      2357      2365      2367      2359      2357      2365      2368
      2359      2360      2362      2363      2359      2360      2362      2364
      2359      2360      2362      2374      2360      2359      2357      2365
      2360      2362      2374      2375      2360      2362      2374      2376
      2360      2362      2374      2377      2361      2360      2362      2363
      2361      2360      2362      2364      2361      2360      2362      2374
      2362      2374      2377      2378      2362      2374      2377      2379
      2362      2374      2377      2380      2363      2362      2374      2375
      2363      2362      2374      2376      2363      2362      2374      2377
      2364      2362      2374      2375      2364      2362      2374      2376
      2364      2362      2374      2377      2365      2368      2369      2370
      2365      2368      2369      2371      2366      2365      2368      2369
      2367      2365      2368      2369      2368      2369      2371      2372
      2368      2369      2371      2373      2368      2369      2371      2421
      2369      2371      2421      2422      2369      2371      2421      2423
      2369      2371      2421      2424      2370      2369      2371      2372
      2370      2369      2371      2373      2370      2369      2371      2421
      2371      2421      2424      2425      2371      2421      2424      2426
      2371      2421      2424      2427      2372      2371      2421      2422
      2372      2371      2421      2423      2372      2371      2421      2424
      2373      2371      2421      2422      2373      2371      2421      2423
      2373      2371      2421      2424      2374      2377      2380      2381
      2374      2377      2380      2382      2374      2377      2380      2383
      2375      2374      2377      2378      2375      2374      2377      2379
      2375      2374      2377      2380      2376      2374      2377      2378
      2376      2374      2377      2379      2376      2374      2377      2380
      2377      2380      2383      2384      2377      2380      2383      2385
      2377      2380      2383      2386      2378      2377      2380      2381
      2378      2377      2380      2382      2378      2377      2380      2383
      2379      2377      2380      2381      2379      2377      2380      2382
      2379      2377      2380      2383      2380      2383      2386      2387
      2380      2383      2386      2388      2380      2383      2386      2389
      2381      2380      2383      2384      2381      2380      2383      2385
      2381      2380      2383      2386      2382      2380      2383      2384
      2382      2380      2383      2385      2382      2380      2383      2386
      2383      2386      2389      2390      2383      2386      2389      2391
      2383      2386      2389      2392      2384      2383      2386      2387
      2384      2383      2386      2388      2384      2383      2386      2389
      2385      2383      2386      2387      2385      2383      2386      2388
      2385      2383      2386      2389      2386      2389      2392      2393
      2386      2389      2392      2394      2387      2386      2389      2390
      2387      2386      2389      2391      2387      2386      2389      2392
      2388      2386      2389      2390      2388      2386      2389      2391
      2388      2386      2389      2392      2389      2392      2394      2395
      2389      2392      2394      2396      2390      2389      2392      2393
      2390      2389      2392      2394      2391      2389      2392      2393
      2391      2389      2392      2394      2392      2394      2396      2397
      2392      2394      2396      2398      2392      2394      2396      2399
      2393      2392      2394      2395      2393      2392      2394      2396
      2394      2396      2399      2400      2394      2396      2399      2401
      2394      2396      2399      2402      2395      2394      2396      2397
      2395      2394      2396      2398      2395      2394      2396      2399
      2396      2399      2402      2403      2396      2399      2402      2404
      2396      2399      2402      2405      2397      2396      2399      2400
      2397      2396      2399      2401      2397      2396      2399      2402
      2398      2396      2399      2400      2398      2396      2399      2401
      2398      2396      2399      2402      2399      2402      2405      2406
      2399      2402      2405      2407      2399      2402      2405      2408
      2400      2399      2402      2403      2400      2399      2402      2404
      2400      2399      2402      2405      2401      2399      2402      2403
      2401      2399      2402      2404      2401      2399      2402      2405
      2402      2405      2408      2409      2402      2405      2408      2410
      2402      2405      2408      2411      2403      2402      2405      2406
      2403      2402      2405      2407      2403      2402      2405      2408
      2404      2402      2405      2406      2404      2402      2405      2407
      2404      2402      2405      2408      2405      2408      2411      2412
      2405      2408      2411      2413      2405      2408      2411      2414
      2406      2405      2408      2409      2406      2405      2408      2410
      2406      2405      2408      2411      2407      2405      2408      2409
      2407      2405      2408      2410      2407      2405      2408      2411
      2408      2411      2414      2415      2408      2411      2414      2416
      2408      2411      2414      2417      2409      2408      2411      2412
      2409      2408      2411      2413      2409      2408      2411      2414
      2410      2408      2411      2412      2410      2408      2411      2413
      2410      2408      2411      2414      2411      2414      2417      2418
      2411      2414      2417      2419      2411      2414      2417      2420
      2412      2411      2414      2415      2412      2411      2414      2416
      2412      2411      2414      2417      2413      2411      2414      2415
      2413      2411      2414      2416      2413      2411      2414      2417
      2415      2414      2417      2418      2415      2414      2417      2419
      2415      2414      2417      2420      2416      2414      2417      2418
      2416      2414      2417      2419      2416      2414      2417      2420
      2421      2424      2427      2428      2421      2424      2427      2429
      2421      2424      2427      2430      2422      2421      2424      2425
      2422      2421      2424      2426      2422      2421      2424      2427
      2423      2421      2424      2425      2423      2421      2424      2426
      2423      2421      2424      2427      2424      2427      2430      2431
      2424      2427      2430      2432      2424      2427      2430      2433
      2425      2424      2427      2428      2425      2424      2427      2429
      2425      2424      2427      2430      2426      2424      2427      2428
      2426      2424      2427      2429      2426      2424      2427      2430
      2427      2430      2433      2434      2427      2430      2433      2435
      2427      2430      2433      2436      2428      2427      2430      2431
      2428      2427      2430      2432      2428      2427      2430      2433
      2429      2427      2430      2431      2429      2427      2430      2432
      2429      2427      2430      2433      2430      2433      2436      2437
      2430      2433      2436      2438      2430      2433      2436      2439
      2431      2430      2433      2434      2431      2430      2433      2435
      2431      2430      2433      2436      2432      2430      2433      2434
      2432      2430      2433      2435      2432      2430      2433      2436
      2433      2436      2439      2440      2433      2436      2439      2441
      2433      2436      2439      2442      2434      2433      2436      2437
      2434      2433      2436      2438      2434      2433      2436      2439
      2435      2433      2436      2437      2435      2433      2436      2438
      2435      2433      2436      2439      2436      2439      2442      2443
      2436      2439      2442      2444      2436      2439      2442      2445
      2437      2436      2439      2440      2437      2436      2439      2441
      2437      2436      2439      2442      2438      2436      2439      2440
      2438      2436      2439      2441      2438      2436      2439      2442
      2439      2442      2445      2446      2439      2442      2445      2447
      2439      2442      2445      2448      2440      2439      2442      2443
      2440      2439      2442      2444      2440      2439      2442      2445
      2441      2439      2442      2443      2441      2439      2442      2444
      2441      2439      2442      2445      2442      2445      2448      2449
      2442      2445      2448      2450      2442      2445      2448      2451
      2443      2442      2445      2446      2443      2442      2445      2447
      2443      2442      2445      2448      2444      2442      2445      2446
      2444      2442      2445      2447      2444      2442      2445      2448
      2445      2448      2451      2452      2445      2448      2451      2453
      2445      2448      2451      2454      2446      2445      2448      2449
      2446      2445      2448      2450      2446      2445      2448      2451
      2447      2445      2448      2449      2447      2445      2448      2450
      2447      2445      2448      2451      2448      2451      2454      2455
      2448      2451      2454      2456      2448      2451      2454      2457
      2449      2448      2451      2452      2449      2448      2451      2453
      2449      2448      2451      2454      2450      2448      2451      2452
      2450      2448      2451      2453      2450      2448      2451      2454
      2451      2454      2457      2458      2451      2454      2457      2459
      2451      2454      2457      2460      2452      2451      2454      2455
      2452      2451      2454      2456      2452      2451      2454      2457
      2453      2451      2454      2455      2453      2451      2454      2456
      2453      2451      2454      2457      2454      2457      2460      2461
      2454      2457      2460      2462      2454      2457      2460      2463
      2455      2454      2457      2458      2455      2454      2457      2459
      2455      2454      2457      2460      2456      2454      2457      2458
      2456      2454      2457      2459      2456      2454      2457      2460
      2458      2457      2460      2461      2458      2457      2460      2462
      2458      2457      2460      2463      2459      2457      2460      2461
      2459      2457      2460      2462      2459      2457      2460      2463
      2464      2468      2470      2471      2464      2468      2470      2472
      2464      2468      2473      2474      2464      2468      2473      2475
      2464      2468      2473      2479      2465      2464      2468      2469
      2465      2464      2468      2470      2465      2464      2468      2473
      2466      2464      2468      2469      2466      2464      2468      2470
      2466      2464      2468      2473      2467      2464      2468      2469
      2467      2464      2468      2470      2467      2464      2468      2473
      2468      2473      2479      2476      2469      2468      2470      2471
      2469      2468      2470      2472      2469      2468      2473      2474
      2469      2468      2473      2475      2469      2468      2473      2479
      2470      2468      2473      2474      2470      2468      2473      2475
      2470      2468      2473      2479      2471      2470      2468      2473
      2472      2470      2468      2473      2473      2479      2476      2477
      2473      2479      2476      2478      2473      2479      2476      2480
      2474      2473      2479      2476      2475      2473      2479      2476
      2476      2480      2481      2482      2476      2480      2481      2483
      2476      2480      2481      2484      2477      2476      2480      2481
      2478      2476      2480      2481      2479      2476      2480      2481
      2480      2481      2484      2485      2480      2481      2484      2486
      2480      2481      2484      2492      2481      2484      2486      2487
      2481      2484      2492      2493      2481      2484      2492      2494
      2481      2484      2492      2495      2482      2481      2484      2485
      2482      2481      2484      2486      2482      2481      2484      2492
      2483      2481      2484      2485      2483      2481      2484      2486
      2483      2481      2484      2492      2484      2486      2487      2488
      2484      2486      2487      2489      2484      2492      2495      2496
      2485      2484      2486      2487      2485      2484      2492      2493
      2485      2484      2492      2494      2485      2484      2492      2495
      2486      2484      2492      2493      2486      2484      2492      2494
      2486      2484      2492      2495      2486      2487      2489      2490
      2486      2487      2489      2491      2486      2487      2489      2501
      2487      2486      2484      2492      2487      2489      2501      2502
      2487      2489      2501      2503      2487      2489      2501      2504
      2488      2487      2489      2490      2488      2487      2489      2491
      2488      2487      2489      2501      2489      2501      2504      2505
      2489      2501      2504      2506      2489      2501      2504      2507
      2490      2489      2501      2502      2490      2489      2501      2503
      2490      2489      2501      2504      2491      2489      2501      2502
      2491      2489      2501      2503      2491      2489      2501      2504
      2492      2495      2496      2497      2492      2495      2496      2498
      2493      2492      2495      2496      2494      2492      2495      2496
      2495      2496      2498      2499      2495      2496      2498      2500
      2495      2496      2498      2548      2496      2498      2548      2549
      2496      2498      2548      2550      2496      2498      2548      2551
      2497      2496      2498      2499      2497      2496      2498      2500
      2497      2496      2498      2548      2498      2548      2551      2552
      2498      2548      2551      2553      2498      2548      2551      2554
      2499      2498      2548      2549      2499      2498      2548      2550
      2499      2498      2548      2551      2500      2498      2548      2549
      2500      2498      2548      2550      2500      2498      2548      2551
      2501      2504      2507      2508      2501      2504      2507      2509
      2502      2501      2504      2505      2502      2501      2504      2506
      2502      2501      2504      2507      2503      2501      2504      2505
      2503      2501      2504      2506      2503      2501      2504      2507
      2504      2507      2509      2510      2504      2507      2509      2511
      2505      2504      2507      2508      2505      2504      2507      2509
      2506      2504      2507      2508      2506      2504      2507      2509
      2507      2509      2511      2512      2507      2509      2511      2513
      2507      2509      2511      2514      2508      2507      2509      2510
      2508      2507      2509      2511      2509      2511      2514      2515
      2509      2511      2514      2516      2510      2509      2511      2512
      2510      2509      2511      2513      2510      2509      2511      2514
      2511      2514      2516      2517      2511      2514      2516      2518
      2512      2511      2514      2515      2512      2511      2514      2516
      2513      2511      2514      2515      2513      2511      2514      2516
      2514      2516      2518      2519      2514      2516      2518      2520
      2514      2516      2518      2521      2515      2514      2516      2517
      2515      2514      2516      2518      2516      2518      2521      2522
      2516      2518      2521      2523      2517      2516      2518      2519
      2517      2516      2518      2520      2517      2516      2518      2521
      2518      2521      2523      2524      2518      2521      2523      2525
      2519      2518      2521      2522      2519      2518      2521      2523
      2520      2518      2521      2522      2520      2518      2521      2523
      2521      2523      2525      2526      2521      2523      2525      2527
      2521      2523      2525      2528      2522      2521      2523      2524
      2522      2521      2523      2525      2523      2525      2528      2529
      2523      2525      2528      2530      2524      2523      2525      2526
      2524      2523      2525      2527      2524      2523      2525      2528
      2525      2528      2530      2531      2525      2528      2530      2532
      2526      2525      2528      2529      2526      2525      2528      2530
      2527      2525      2528      2529      2527      2525      2528      2530
      2528      2530      2532      2533      2528      2530      2532      2534
      2528      2530      2532      2535      2529      2528      2530      2531
      2529      2528      2530      2532      2530      2532      2535      2536
      2530      2532      2535      2537      2530      2532      2535      2538
      2531      2530      2532      2533      2531      2530      2532      2534
      2531      2530      2532      2535      2532      2535      2538      2539
      2532      2535      2538      2540      2532      2535      2538      2541
      2533      2532      2535      2536      2533      2532      2535      2537
      2533      2532      2535      2538      2534      2532      2535      2536
      2534      2532      2535      2537      2534      2532      2535      2538
      2535      2538      2541      2542      2535      2538      2541      2543
      2535      2538      2541      2544      2536      2535      2538      2539
      2536      2535      2538      2540      2536      2535      2538      2541
      2537      2535      2538      2539      2537      2535      2538      2540
      2537      2535      2538      2541      2538      2541      2544      2545
      2538      2541      2544      2546      2538      2541      2544      2547
      2539      2538      2541      2542      2539      2538      2541      2543
      2539      2538      2541      2544      2540      2538      2541      2542
      2540      2538      2541      2543      2540      2538      2541      2544
      2542      2541      2544      2545      2542      2541      2544      2546
      2542      2541      2544      2547      2543      2541      2544      2545
      2543      2541      2544      2546      2543      2541      2544      2547
      2548      2551      2554      2555      2548      2551      2554      2556
      2548      2551      2554      2557      2549      2548      2551      2552
      2549      2548      2551      2553      2549      2548      2551      2554
      2550      2548      2551      2552      2550      2548      2551      2553
      2550      2548      2551      2554      2551      2554      2557      2558
      2551      2554      2557      2559      2551      2554      2557      2560
      2552      2551      2554      2555      2552      2551      2554      2556
      2552      2551      2554      2557      2553      2551      2554      2555
      2553      2551      2554      2556      2553      2551      2554      2557
      2554      2557      2560      2561      2554      2557      2560      2562
      2554      2557      2560      2563      2555      2554      2557      2558
      2555      2554      2557      2559      2555      2554      2557      2560
      2556      2554      2557      2558      2556      2554      2557      2559
      2556      2554      2557      2560      2557      2560      2563      2564
      2557      2560      2563      2565      2557      2560      2563      2566
      2558      2557      2560      2561      2558      2557      2560      2562
      2558      2557      2560      2563      2559      2557      2560      2561
      2559      2557      2560      2562      2559      2557      2560      2563
      2560      2563      2566      2567      2560      2563      2566      2568
      2560      2563      2566      2569      2561      2560      2563      2564
      2561      2560      2563      2565      2561      2560      2563      2566
      2562      2560      2563      2564      2562      2560      2563      2565
      2562      2560      2563      2566      2563      2566      2569      2570
      2563      2566      2569      2571      2563      2566      2569      2572
      2564      2563      2566      2567      2564      2563      2566      2568
      2564      2563      2566      2569      2565      2563      2566      2567
      2565      2563      2566      2568      2565      2563      2566      2569
      2566      2569      2572      2573      2566      2569      2572      2574
      2566      2569      2572      2575      2567      2566      2569      2570
      2567      2566      2569      2571      2567      2566      2569      2572
      2568      2566      2569      2570      2568      2566      2569      2571
      2568      2566      2569      2572      2569      2572      2575      2576
      2569      2572      2575      2577      2569      2572      2575      2578
      2570      2569      2572      2573      2570      2569      2572      2574
      2570      2569      2572      2575      2571      2569      2572      2573
      2571      2569      2572      2574      2571      2569      2572      2575
      2572      2575      2578      2579      2572      2575      2578      2580
      2572      2575      2578      2581      2573      2572      2575      2576
      2573      2572      2575      2577      2573      2572      2575      2578
      2574      2572      2575      2576      2574      2572      2575      2577
      2574      2572      2575      2578      2575      2578      2581      2582
      2575      2578      2581      2583      2575      2578      2581      2584
      2576      2575      2578      2579      2576      2575      2578      2580
      2576      2575      2578      2581      2577      2575      2578      2579
      2577      2575      2578      2580      2577      2575      2578      2581
      2578      2581      2584      2585      2578      2581      2584      2586
      2578      2581      2584      2587      2579      2578      2581      2582
      2579      2578      2581      2583      2579      2578      2581      2584
      2580      2578      2581      2582      2580      2578      2581      2583
      2580      2578      2581      2584      2581      2584      2587      2588
      2581      2584      2587      2589      2581      2584      2587      2590
      2582      2581      2584      2585      2582      2581      2584      2586
      2582      2581      2584      2587      2583      2581      2584      2585
      2583      2581      2584      2586      2583      2581      2584      2587
      2584      2587      2590      2591      2584      2587      2590      2592
      2584      2587      2590      2593      2585      2584      2587      2588
      2585      2584      2587      2589      2585      2584      2587      2590
      2586      2584      2587      2588      2586      2584      2587      2589
      2586      2584      2587      2590      2587      2590      2593      2594
      2587      2590      2593      2595      2587      2590      2593      2596
      2588      2587      2590      2591      2588      2587      2590      2592
      2588      2587      2590      2593      2589      2587      2590      2591
      2589      2587      2590      2592      2589      2587      2590      2593
      2591      2590      2593      2594      2591      2590      2593      2595
      2591      2590      2593      2596      2592      2590      2593      2594
      2592      2590      2593      2595      2592      2590      2593      2596
      2597      2610      2613      2614      2597      2610      2613      2615
      2597      2610      2613      2620      2598      2597      2602      2603
      2598      2597      2602      2604      2598      2597      2602      2605
      2598      2597      2606      2607      2598      2597      2606      2608
      2598      2597      2606      2609      2598      2597      2610      2611
      2598      2597      2610      2612      2598      2597      2610      2613
      2599      2598      2597      2602      2599      2598      2597      2606
      2599      2598      2597      2610      2600      2598      2597      2602
      2600      2598      2597      2606      2600      2598      2597      2610
      2601      2598      2597      2602      2601      2598      2597      2606
      2601      2598      2597      2610      2602      2597      2606      2607
      2602      2597      2606      2608      2602      2597      2606      2609
      2602      2597      2610      2611      2602      2597      2610      2612
      2602      2597      2610      2613      2603      2602      2597      2606
      2603      2602      2597      2610      2604      2602      2597      2606
      2604      2602      2597      2610      2605      2602      2597      2606
      2605      2602      2597      2610      2606      2597      2610      2611
      2606      2597      2610      2612      2606      2597      2610      2613
      2607      2606      2597      2610      2608      2606      2597      2610
      2609      2606      2597      2610      2610      2613      2620      2616
      2611      2610      2613      2614      2611      2610      2613      2615
      2611      2610      2613      2620      2612      2610      2613      2614
      2612      2610      2613      2615      2612      2610      2613      2620
      2613      2620      2616      2617      2613      2620      2616      2618
      2613      2620      2616      2619      2614      2613      2620      2616
      2615      2613      2620      2616      2616      2619      2621      2622
      2616      2619      2621      2623      2616      2619      2621      2626
      2617      2616      2619      2621      2618      2616      2619      2621
      2619      2621      2626      2624      2619      2621      2626      2627
      2619      2621      2626      2628      2620      2616      2619      2621
      2621      2626      2624      2625      2621      2626      2624      2676
      2621      2626      2628      2629      2621      2626      2628      2630
      2621      2626      2628      2632      2622      2621      2626      2624
      2622      2621      2626      2627      2622      2621      2626      2628
      2623      2621      2626      2624      2623      2621      2626      2627
      2623      2621      2626      2628      2624      2626      2628      2629
      2624      2626      2628      2630      2624      2626      2628      2632
      2624      2676      2678      2679      2624      2676      2678      2680
      2624      2676      2678      2681      2625      2624      2626      2627
      2625      2624      2626      2628      2625      2624      2676      2677
      2625      2624      2676      2678      2626      2624      2676      2677
      2626      2624      2676      2678      2626      2628      2630      2631
      2626      2628      2632      2633      2626      2628      2632      2634
      2627      2626      2624      2676      2627      2626      2628      2629
      2627      2626      2628      2630      2627      2626      2628      2632
      2628      2626      2624      2676      2628      2632      2634      2635
      2628      2632      2634      2636      2629      2628      2630      2631
      2629      2628      2632      2633      2629      2628      2632      2634
      2630      2628      2632      2633      2630      2628      2632      2634
      2631      2630      2628      2632      2632      2634      2636      2637
      2632      2634      2636      2638      2632      2634      2636      2639
      2633      2632      2634      2635      2633      2632      2634      2636
      2634      2636      2639      2640      2634      2636      2639      2641
      2634      2636      2639      2642      2635      2634      2636      2637
      2635      2634      2636      2638      2635      2634      2636      2639
      2636      2639      2642      2643      2636      2639      2642      2644
      2636      2639      2642      2645      2637      2636      2639      2640
      2637      2636      2639      2641      2637      2636      2639      2642
      2638      2636      2639      2640      2638      2636      2639      2641
      2638      2636      2639      2642      2639      2642      2645      2646
      2639      2642      2645      2647      2639      2642      2645      2648
      2640      2639      2642      2643      2640      2639      2642      2644
      2640      2639      2642      2645      2641      2639      2642      2643
      2641      2639      2642      2644      2641      2639      2642      2645
      2642      2645      2648      2649      2642      2645      2648      2650
      2642      2645      2648      2651      2643      2642      2645      2646
      2643      2642      2645      2647      2643      2642      2645      2648
      2644      2642      2645      2646      2644      2642      2645      2647
      2644      2642      2645      2648      2645      2648      2651      2652
      2645      2648      2651      2653      2645      2648      2651      2654
      2646      2645      2648      2649      2646      2645      2648      2650
      2646      2645      2648      2651      2647      2645      2648      2649
      2647      2645      2648      2650      2647      2645      2648      2651
      2648      2651      2654      2655      2648      2651      2654      2656
      2648      2651      2654      2657      2649      2648      2651      2652
      2649      2648      2651      2653      2649      2648      2651      2654
      2650      2648      2651      2652      2650      2648      2651      2653
      2650      2648      2651      2654      2651      2654      2657      2658
      2651      2654      2657      2659      2651      2654      2657      2660
      2652      2651      2654      2655      2652      2651      2654      2656
      2652      2651      2654      2657      2653      2651      2654      2655
      2653      2651      2654      2656      2653      2651      2654      2657
      2654      2657      2660      2661      2654      2657      2660      2662
      2654      2657      2660      2663      2655      2654      2657      2658
      2655      2654      2657      2659      2655      2654      2657      2660
      2656      2654      2657      2658      2656      2654      2657      2659
      2656      2654      2657      2660      2657      2660      2663      2664
      2657      2660      2663      2665      2657      2660      2663      2666
      2658      2657      2660      2661      2658      2657      2660      2662
      2658      2657      2660      2663      2659      2657      2660      2661
      2659      2657      2660      2662      2659      2657      2660      2663
      2660      2663      2666      2667      2660      2663      2666      2668
      2660      2663      2666      2669      2661      2660      2663      2664
      2661      2660      2663      2665      2661      2660      2663      2666
      2662      2660      2663      2664      2662      2660      2663      2665
      2662      2660      2663      2666      2663      2666      2669      2670
      2663      2666      2669      2671      2663      2666      2669      2672
      2664      2663      2666      2667      2664      2663      2666      2668
      2664      2663      2666      2669      2665      2663      2666      2667
      2665      2663      2666      2668      2665      2663      2666      2669
      2666      2669      2672      2673      2666      2669      2672      2674
      2666      2669      2672      2675      2667      2666      2669      2670
      2667      2666      2669      2671      2667      2666      2669      2672
      2668      2666      2669      2670      2668      2666      2669      2671
      2668      2666      2669      2672      2670      2669      2672      2673
      2670      2669      2672      2674      2670      2669      2672      2675
      2671      2669      2672      2673      2671      2669      2672      2674
      2671      2669      2672      2675      2676      2678      2681      2682
      2676      2678      2681      2683      2676      2678      2681      2684
      2677      2676      2678      2679      2677      2676      2678      2680
      2677      2676      2678      2681      2678      2681      2684      2685
      2678      2681      2684      2686      2678      2681      2684      2687
      2679      2678      2681      2682      2679      2678      2681      2683
      2679      2678      2681      2684      2680      2678      2681      2682
      2680      2678      2681      2683      2680      2678      2681      2684
      2681      2684      2687      2688      2681      2684      2687      2689
      2681      2684      2687      2690      2682      2681      2684      2685
      2682      2681      2684      2686      2682      2681      2684      2687
      2683      2681      2684      2685      2683      2681      2684      2686
      2683      2681      2684      2687      2684      2687      2690      2691
      2684      2687      2690      2692      2684      2687      2690      2693
      2685      2684      2687      2688      2685      2684      2687      2689
      2685      2684      2687      2690      2686      2684      2687      2688
      2686      2684      2687      2689      2686      2684      2687      2690
      2687      2690      2693      2694      2687      2690      2693      2695
      2687      2690      2693      2696      2688      2687      2690      2691
      2688      2687      2690      2692      2688      2687      2690      2693
      2689      2687      2690      2691      2689      2687      2690      2692
      2689      2687      2690      2693      2690      2693      2696      2697
      2690      2693      2696      2698      2690      2693      2696      2699
      2691      2690      2693      2694      2691      2690      2693      2695
      2691      2690      2693      2696      2692      2690      2693      2694
      2692      2690      2693      2695      2692      2690      2693      2696
      2693      2696      2699      2700      2693      2696      2699      2701
      2694      2693      2696      2697      2694      2693      2696      2698
      2694      2693      2696      2699      2695      2693      2696      2697
      2695      2693      2696      2698      2695      2693      2696      2699
      2696      2699      2701      2702      2696      2699      2701      2703
      2697      2696      2699      2700      2697      2696      2699      2701
      2698      2696      2699      2700      2698      2696      2699      2701
      2699      2701      2703      2704      2699      2701      2703      2705
      2699      2701      2703      2706      2700      2699      2701      2702
      2700      2699      2701      2703      2701      2703      2706      2707
      2701      2703      2706      2708      2701      2703      2706      2709
      2702      2701      2703      2704      2702      2701      2703      2705
      2702      2701      2703      2706      2703      2706      2709      2710
      2703      2706      2709      2711      2703      2706      2709      2712
      2704      2703      2706      2707      2704      2703      2706      2708
      2704      2703      2706      2709      2705      2703      2706      2707
      2705      2703      2706      2708      2705      2703      2706      2709
      2706      2709      2712      2713      2706      2709      2712      2714
      2706      2709      2712      2715      2707      2706      2709      2710
      2707      2706      2709      2711      2707      2706      2709      2712
      2708      2706      2709      2710      2708      2706      2709      2711
      2708      2706      2709      2712      2709      2712      2715      2716
      2709      2712      2715      2717      2709      2712      2715      2718
      2710      2709      2712      2713      2710      2709      2712      2714
      2710      2709      2712      2715      2711      2709      2712      2713
      2711      2709      2712      2714      2711      2709      2712      2715
      2712      2715      2718      2719      2712      2715      2718      2720
      2712      2715      2718      2721      2713      2712      2715      2716
      2713      2712      2715      2717      2713      2712      2715      2718
      2714      2712      2715      2716      2714      2712      2715      2717
      2714      2712      2715      2718      2715      2718      2721      2722
      2715      2718      2721      2723      2715      2718      2721      2724
      2716      2715      2718      2719      2716      2715      2718      2720
      2716      2715      2718      2721      2717      2715      2718      2719
      2717      2715      2718      2720      2717      2715      2718      2721
      2718      2721      2724      2725      2718      2721      2724      2726
      2718      2721      2724      2727      2719      2718      2721      2722
      2719      2718      2721      2723      2719      2718      2721      2724
      2720      2718      2721      2722      2720      2718      2721      2723
      2720      2718      2721      2724      2722      2721      2724      2725
      2722      2721      2724      2726      2722      2721      2724      2727
      2723      2721      2724      2725      2723      2721      2724      2726
      2723      2721      2724      2727      2728      2732      2735      2736
      2728      2732      2735      2737      2728      2732      2735      2741
      2729      2728      2732      2733      2729      2728      2732      2734
      2729      2728      2732      2735      2730      2728      2732      2733
      2730      2728      2732      2734      2730      2728      2732      2735
      2731      2728      2732      2733      2731      2728      2732      2734
      2731      2728      2732      2735      2732      2735      2741      2738
      2733      2732      2735      2736      2733      2732      2735      2737
      2733      2732      2735      2741      2734      2732      2735      2736
      2734      2732      2735      2737      2734      2732      2735      2741
      2735      2741      2738      2739      2735      2741      2738      2740
      2735      2741      2738      2742      2736      2735      2741      2738
      2737      2735      2741      2738      2738      2742      2743      2744
      2738      2742      2743      2745      2738      2742      2743      2746
      2739      2738      2742      2743      2740      2738      2742      2743
      2741      2738      2742      2743      2742      2743      2746      2747
      2742      2743      2746      2748      2742      2743      2746      2754
      2743      2746      2748      2749      2743      2746      2754      2755
      2743      2746      2754      2756      2743      2746      2754      2757
      2744      2743      2746      2747      2744      2743      2746      2748
      2744      2743      2746      2754      2745      2743      2746      2747
      2745      2743      2746      2748      2745      2743      2746      2754
      2746      2748      2749      2750      2746      2748      2749      2751
      2746      2754      2757      2758      2747      2746      2748      2749
      2747      2746      2754      2755      2747      2746      2754      2756
      2747      2746      2754      2757      2748      2746      2754      2755
      2748      2746      2754      2756      2748      2746      2754      2757
      2748      2749      2751      2752      2748      2749      2751      2753
      2748      2749      2751      2763      2749      2748      2746      2754
      2749      2751      2763      2764      2749      2751      2763      2765
      2749      2751      2763      2766      2750      2749      2751      2752
      2750      2749      2751      2753      2750      2749      2751      2763
      2751      2763      2766      2767      2751      2763      2766      2768
      2751      2763      2766      2769      2752      2751      2763      2764
      2752      2751      2763      2765      2752      2751      2763      2766
      2753      2751      2763      2764      2753      2751      2763      2765
      2753      2751      2763      2766      2754      2757      2758      2759
      2754      2757      2758      2760      2755      2754      2757      2758
      2756      2754      2757      2758      2757      2758      2760      2761
      2757      2758      2760      2762      2757      2758      2760      2810
      2758      2760      2810      2811      2758      2760      2810      2812
      2758      2760      2810      2813      2759      2758      2760      2761
      2759      2758      2760      2762      2759      2758      2760      2810
      2760      2810      2813      2814      2760      2810      2813      2815
      2760      2810      2813      2816      2761      2760      2810      2811
      2761      2760      2810      2812      2761      2760      2810      2813
      2762      2760      2810      2811      2762      2760      2810      2812
      2762      2760      2810      2813      2763      2766      2769      2770
      2763      2766      2769      2771      2764      2763      2766      2767
      2764      2763      2766      2768      2764      2763      2766      2769
      2765      2763      2766      2767      2765      2763      2766      2768
      2765      2763      2766      2769      2766      2769      2771      2772
      2766      2769      2771      2773      2767      2766      2769      2770
      2767      2766      2769      2771      2768      2766      2769      2770
      2768      2766      2769      2771      2769      2771      2773      2774
      2769      2771      2773      2775      2769      2771      2773      2776
      2770      2769      2771      2772      2770      2769      2771      2773
      2771      2773      2776      2777      2771      2773      2776      2778
      2772      2771      2773      2774      2772      2771      2773      2775
      2772      2771      2773      2776      2773      2776      2778      2779
      2773      2776      2778      2780      2774      2773      2776      2777
      2774      2773      2776      2778      2775      2773      2776      2777
      2775      2773      2776      2778      2776      2778      2780      2781
      2776      2778      2780      2782      2776      2778      2780      2783
      2777      2776      2778      2779      2777      2776      2778      2780
      2778      2780      2783      2784      2778      2780      2783      2785
      2779      2778      2780      2781      2779      2778      2780      2782
      2779      2778      2780      2783      2780      2783      2785      2786
      2780      2783      2785      2787      2781      2780      2783      2784
      2781      2780      2783      2785      2782      2780      2783      2784
      2782      2780      2783      2785      2783      2785      2787      2788
      2783      2785      2787      2789      2783      2785      2787      2790
      2784      2783      2785      2786      2784      2783      2785      2787
      2785      2787      2790      2791      2785      2787      2790      2792
      2786      2785      2787      2788      2786      2785      2787      2789
      2786      2785      2787      2790      2787      2790      2792      2793
      2787      2790      2792      2794      2788      2787      2790      2791
      2788      2787      2790      2792      2789      2787      2790      2791
      2789      2787      2790      2792      2790      2792      2794      2795
      2790      2792      2794      2796      2790      2792      2794      2797
      2791      2790      2792      2793      2791      2790      2792      2794
      2792      2794      2797      2798      2792      2794      2797      2799
      2792      2794      2797      2800      2793      2792      2794      2795
      2793      2792      2794      2796      2793      2792      2794      2797
      2794      2797      2800      2801      2794      2797      2800      2802
      2794      2797      2800      2803      2795      2794      2797      2798
      2795      2794      2797      2799      2795      2794      2797      2800
      2796      2794      2797      2798      2796      2794      2797      2799
      2796      2794      2797      2800      2797      2800      2803      2804
      2797      2800      2803      2805      2797      2800      2803      2806
      2798      2797      2800      2801      2798      2797      2800      2802
      2798      2797      2800      2803      2799      2797      2800      2801
      2799      2797      2800      2802      2799      2797      2800      2803
      2800      2803      2806      2807      2800      2803      2806      2808
      2800      2803      2806      2809      2801      2800      2803      2804
      2801      2800      2803      2805      2801      2800      2803      2806
      2802      2800      2803      2804      2802      2800      2803      2805
      2802      2800      2803      2806      2804      2803      2806      2807
      2804      2803      2806      2808      2804      2803      2806      2809
      2805      2803      2806      2807      2805      2803      2806      2808
      2805      2803      2806      2809      2810      2813      2816      2817
      2810      2813      2816      2818      2810      2813      2816      2819
      2811      2810      2813      2814      2811      2810      2813      2815
      2811      2810      2813      2816      2812      2810      2813      2814
      2812      2810      2813      2815      2812      2810      2813      2816
      2813      2816      2819      2820      2813      2816      2819      2821
      2813      2816      2819      2822      2814      2813      2816      2817
      2814      2813      2816      2818      2814      2813      2816      2819
      2815      2813      2816      2817      2815      2813      2816      2818
      2815      2813      2816      2819      2816      2819      2822      2823
      2816      2819      2822      2824      2816      2819      2822      2825
      2817      2816      2819      2820      2817      2816      2819      2821
      2817      2816      2819      2822      2818      2816      2819      2820
      2818      2816      2819      2821      2818      2816      2819      2822
      2819      2822      2825      2826      2819      2822      2825      2827
      2819      2822      2825      2828      2820      2819      2822      2823
      2820      2819      2822      2824      2820      2819      2822      2825
      2821      2819      2822      2823      2821      2819      2822      2824
      2821      2819      2822      2825      2822      2825      2828      2829
      2822      2825      2828      2830      2822      2825      2828      2831
      2823      2822      2825      2826      2823      2822      2825      2827
      2823      2822      2825      2828      2824      2822      2825      2826
      2824      2822      2825      2827      2824      2822      2825      2828
      2825      2828      2831      2832      2825      2828      2831      2833
      2825      2828      2831      2834      2826      2825      2828      2829
      2826      2825      2828      2830      2826      2825      2828      2831
      2827      2825      2828      2829      2827      2825      2828      2830
      2827      2825      2828      2831      2828      2831      2834      2835
      2828      2831      2834      2836      2828      2831      2834      2837
      2829      2828      2831      2832      2829      2828      2831      2833
      2829      2828      2831      2834      2830      2828      2831      2832
      2830      2828      2831      2833      2830      2828      2831      2834
      2831      2834      2837      2838      2831      2834      2837      2839
      2831      2834      2837      2840      2832      2831      2834      2835
      2832      2831      2834      2836      2832      2831      2834      2837
      2833      2831      2834      2835      2833      2831      2834      2836
      2833      2831      2834      2837      2834      2837      2840      2841
      2834      2837      2840      2842      2834      2837      2840      2843
      2835      2834      2837      2838      2835      2834      2837      2839
      2835      2834      2837      2840      2836      2834      2837      2838
      2836      2834      2837      2839      2836      2834      2837      2840
      2837      2840      2843      2844      2837      2840      2843      2845
      2837      2840      2843      2846      2838      2837      2840      2841
      2838      2837      2840      2842      2838      2837      2840      2843
      2839      2837      2840      2841      2839      2837      2840      2842
      2839      2837      2840      2843      2840      2843      2846      2847
      2840      2843      2846      2848      2840      2843      2846      2849
      2841      2840      2843      2844      2841      2840      2843      2845
      2841      2840      2843      2846      2842      2840      2843      2844
      2842      2840      2843      2845      2842      2840      2843      2846
      2843      2846      2849      2850      2843      2846      2849      2851
      2843      2846      2849      2852      2844      2843      2846      2847
      2844      2843      2846      2848      2844      2843      2846      2849
      2845      2843      2846      2847      2845      2843      2846      2848
      2845      2843      2846      2849      2846      2849      2852      2853
      2846      2849      2852      2854      2846      2849      2852      2855
      2847      2846      2849      2850      2847      2846      2849      2851
      2847      2846      2849      2852      2848      2846      2849      2850
      2848      2846      2849      2851      2848      2846      2849      2852
      2849      2852      2855      2856      2849      2852      2855      2857
      2849      2852      2855      2858      2850      2849      2852      2853
      2850      2849      2852      2854      2850      2849      2852      2855
      2851      2849      2852      2853      2851      2849      2852      2854
      2851      2849      2852      2855      2853      2852      2855      2856
      2853      2852      2855      2857      2853      2852      2855      2858
      2854      2852      2855      2856      2854      2852      2855      2857
      2854      2852      2855      2858      2859      2863      2866      2867
      2859      2863      2866      2868      2859      2863      2866      2872
      2860      2859      2863      2864      2860      2859      2863      2865
      2860      2859      2863      2866      2861      2859      2863      2864
      2861      2859      2863      2865      2861      2859      2863      2866
      2862      2859      2863      2864      2862      2859      2863      2865
      2862      2859      2863      2866      2863      2866      2872      2869
      2864      2863      2866      2867      2864      2863      2866      2868
      2864      2863      2866      2872      2865      2863      2866      2867
      2865      2863      2866      2868      2865      2863      2866      2872
      2866      2872      2869      2870      2866      2872      2869      2871
      2866      2872      2869      2873      2867      2866      2872      2869
      2868      2866      2872      2869      2869      2873      2874      2875
      2869      2873      2874      2876      2869      2873      2874      2877
      2870      2869      2873      2874      2871      2869      2873      2874
      2872      2869      2873      2874      2873      2874      2877      2878
      2873      2874      2877      2879      2873      2874      2877      2885
      2874      2877      2879      2880      2874      2877      2885      2886
      2874      2877      2885      2887      2874      2877      2885      2888
      2875      2874      2877      2878      2875      2874      2877      2879
      2875      2874      2877      2885      2876      2874      2877      2878
      2876      2874      2877      2879      2876      2874      2877      2885
      2877      2879      2880      2881      2877      2879      2880      2882
      2877      2885      2888      2889      2878      2877      2879      2880
      2878      2877      2885      2886      2878      2877      2885      2887
      2878      2877      2885      2888      2879      2877      2885      2886
      2879      2877      2885      2887      2879      2877      2885      2888
      2879      2880      2882      2883      2879      2880      2882      2884
      2879      2880      2882      2894      2880      2879      2877      2885
      2880      2882      2894      2895      2880      2882      2894      2896
      2880      2882      2894      2897      2881      2880      2882      2883
      2881      2880      2882      2884      2881      2880      2882      2894
      2882      2894      2897      2898      2882      2894      2897      2899
      2882      2894      2897      2900      2883      2882      2894      2895
      2883      2882      2894      2896      2883      2882      2894      2897
      2884      2882      2894      2895      2884      2882      2894      2896
      2884      2882      2894      2897      2885      2888      2889      2890
      2885      2888      2889      2891      2886      2885      2888      2889
      2887      2885      2888      2889      2888      2889      2891      2892
      2888      2889      2891      2893      2888      2889      2891      2941
      2889      2891      2941      2942      2889      2891      2941      2943
      2889      2891      2941      2944      2890      2889      2891      2892
      2890      2889      2891      2893      2890      2889      2891      2941
      2891      2941      2944      2945      2891      2941      2944      2946
      2891      2941      2944      2947      2892      2891      2941      2942
      2892      2891      2941      2943      2892      2891      2941      2944
      2893      2891      2941      2942      2893      2891      2941      2943
      2893      2891      2941      2944      2894      2897      2900      2901
      2894      2897      2900      2902      2894      2897      2900      2903
      2895      2894      2897      2898      2895      2894      2897      2899
      2895      2894      2897      2900      2896      2894      2897      2898
      2896      2894      2897      2899      2896      2894      2897      2900
      2897      2900      2903      2904      2897      2900      2903      2905
      2897      2900      2903      2906      2898      2897      2900      2901
      2898      2897      2900      2902      2898      2897      2900      2903
      2899      2897      2900      2901      2899      2897      2900      2902
      2899      2897      2900      2903      2900      2903      2906      2907
      2900      2903      2906      2908      2900      2903      2906      2909
      2901      2900      2903      2904      2901      2900      2903      2905
      2901      2900      2903      2906      2902      2900      2903      2904
      2902      2900      2903      2905      2902      2900      2903      2906
      2903      2906      2909      2910      2903      2906      2909      2911
      2903      2906      2909      2912      2904      2903      2906      2907
      2904      2903      2906      2908      2904      2903      2906      2909
      2905      2903      2906      2907      2905      2903      2906      2908
      2905      2903      2906      2909      2906      2909      2912      2913
      2906      2909      2912      2914      2907      2906      2909      2910
      2907      2906      2909      2911      2907      2906      2909      2912
      2908      2906      2909      2910      2908      2906      2909      2911
      2908      2906      2909      2912      2909      2912      2914      2915
      2909      2912      2914      2916      2910      2909      2912      2913
      2910      2909      2912      2914      2911      2909      2912      2913
      2911      2909      2912      2914      2912      2914      2916      2917
      2912      2914      2916      2918      2912      2914      2916      2919
      2913      2912      2914      2915      2913      2912      2914      2916
      2914      2916      2919      2920      2914      2916      2919      2921
      2914      2916      2919      2922      2915      2914      2916      2917
      2915      2914      2916      2918      2915      2914      2916      2919
      2916      2919      2922      2923      2916      2919      2922      2924
      2916      2919      2922      2925      2917      2916      2919      2920
      2917      2916      2919      2921      2917      2916      2919      2922
      2918      2916      2919      2920      2918      2916      2919      2921
      2918      2916      2919      2922      2919      2922      2925      2926
      2919      2922      2925      2927      2919      2922      2925      2928
      2920      2919      2922      2923      2920      2919      2922      2924
      2920      2919      2922      2925      2921      2919      2922      2923
      2921      2919      2922      2924      2921      2919      2922      2925
      2922      2925      2928      2929      2922      2925      2928      2930
      2922      2925      2928      2931      2923      2922      2925      2926
      2923      2922      2925      2927      2923      2922      2925      2928
      2924      2922      2925      2926      2924      2922      2925      2927
      2924      2922      2925      2928      2925      2928      2931      2932
      2925      2928      2931      2933      2925      2928      2931      2934
      2926      2925      2928      2929      2926      2925      2928      2930
      2926      2925      2928      2931      2927      2925      2928      2929
      2927      2925      2928      2930      2927      2925      2928      2931
      2928      2931      2934      2935      2928      2931      2934      2936
      2928      2931      2934      2937      2929      2928      2931      2932
      2929      2928      2931      2933      2929      2928      2931      2934
      2930      2928      2931      2932      2930      2928      2931      2933
      2930      2928      2931      2934      2931      2934      2937      2938
      2931      2934      2937      2939      2931      2934      2937      2940
      2932      2931      2934      2935      2932      2931      2934      2936
      2932      2931      2934      2937      2933      2931      2934      2935
      2933      2931      2934      2936      2933      2931      2934      2937
      2935      2934      2937      2938      2935      2934      2937      2939
      2935      2934      2937      2940      2936      2934      2937      2938
      2936      2934      2937      2939      2936      2934      2937      2940
      2941      2944      2947      2948      2941      2944      2947      2949
      2941      2944      2947      2950      2942      2941      2944      2945
      2942      2941      2944      2946      2942      2941      2944      2947
      2943      2941      2944      2945      2943      2941      2944      2946
      2943      2941      2944      2947      2944      2947      2950      2951
      2944      2947      2950      2952      2944      2947      2950      2953
      2945      2944      2947      2948      2945      2944      2947      2949
      2945      2944      2947      2950      2946      2944      2947      2948
      2946      2944      2947      2949      2946      2944      2947      2950
      2947      2950      2953      2954      2947      2950      2953      2955
      2947      2950      2953      2956      2948      2947      2950      2951
      2948      2947      2950      2952      2948      2947      2950      2953
      2949      2947      2950      2951      2949      2947      2950      2952
      2949      2947      2950      2953      2950      2953      2956      2957
      2950      2953      2956      2958      2950      2953      2956      2959
      2951      2950      2953      2954      2951      2950      2953      2955
      2951      2950      2953      2956      2952      2950      2953      2954
      2952      2950      2953      2955      2952      2950      2953      2956
      2953      2956      2959      2960      2953      2956      2959      2961
      2953      2956      2959      2962      2954      2953      2956      2957
      2954      2953      2956      2958      2954      2953      2956      2959
      2955      2953      2956      2957      2955      2953      2956      2958
      2955      2953      2956      2959      2956      2959      2962      2963
      2956      2959      2962      2964      2956      2959      2962      2965
      2957      2956      2959      2960      2957      2956      2959      2961
      2957      2956      2959      2962      2958      2956      2959      2960
      2958      2956      2959      2961      2958      2956      2959      2962
      2959      2962      2965      2966      2959      2962      2965      2967
      2959      2962      2965      2968      2960      2959      2962      2963
      2960      2959      2962      2964      2960      2959      2962      2965
      2961      2959      2962      2963      2961      2959      2962      2964
      2961      2959      2962      2965      2962      2965      2968      2969
      2962      2965      2968      2970      2962      2965      2968      2971
      2963      2962      2965      2966      2963      2962      2965      2967
      2963      2962      2965      2968      2964      2962      2965      2966
      2964      2962      2965      2967      2964      2962      2965      2968
      2965      2968      2971      2972      2965      2968      2971      2973
      2965      2968      2971      2974      2966      2965      2968      2969
      2966      2965      2968      2970      2966      2965      2968      2971
      2967      2965      2968      2969      2967      2965      2968      2970
      2967      2965      2968      2971      2968      2971      2974      2975
      2968      2971      2974      2976      2968      2971      2974      2977
      2969      2968      2971      2972      2969      2968      2971      2973
      2969      2968      2971      2974      2970      2968      2971      2972
      2970      2968      2971      2973      2970      2968      2971      2974
      2971      2974      2977      2978      2971      2974      2977      2979
      2971      2974      2977      2980      2972      2971      2974      2975
      2972      2971      2974      2976      2972      2971      2974      2977
      2973      2971      2974      2975      2973      2971      2974      2976
      2973      2971      2974      2977      2974      2977      2980      2981
      2974      2977      2980      2982      2974      2977      2980      2983
      2975      2974      2977      2978      2975      2974      2977      2979
      2975      2974      2977      2980      2976      2974      2977      2978
      2976      2974      2977      2979      2976      2974      2977      2980
      2977      2980      2983      2984      2977      2980      2983      2985
      2977      2980      2983      2986      2978      2977      2980      2981
      2978      2977      2980      2982      2978      2977      2980      2983
      2979      2977      2980      2981      2979      2977      2980      2982
      2979      2977      2980      2983      2980      2983      2986      2987
      2980      2983      2986      2988      2980      2983      2986      2989
      2981      2980      2983      2984      2981      2980      2983      2985
      2981      2980      2983      2986      2982      2980      2983      2984
      2982      2980      2983      2985      2982      2980      2983      2986
      2984      2983      2986      2987      2984      2983      2986      2988
      2984      2983      2986      2989      2985      2983      2986      2987
      2985      2983      2986      2988      2985      2983      2986      2989
      2990      3003      3006      3007      2990      3003      3006      3008
      2990      3003      3006      3013      2991      2990      2995      2996
      2991      2990      2995      2997      2991      2990      2995      2998
      2991      2990      2999      3000      2991      2990      2999      3001
      2991      2990      2999      3002      2991      2990      3003      3004
      2991      2990      3003      3005      2991      2990      3003      3006
      2992      2991      2990      2995      2992      2991      2990      2999
      2992      2991      2990      3003      2993      2991      2990      2995
      2993      2991      2990      2999      2993      2991      2990      3003
      2994      2991      2990      2995      2994      2991      2990      2999
      2994      2991      2990      3003      2995      2990      2999      3000
      2995      2990      2999      3001      2995      2990      2999      3002
      2995      2990      3003      3004      2995      2990      3003      3005
      2995      2990      3003      3006      2996      2995      2990      2999
      2996      2995      2990      3003      2997      2995      2990      2999
      2997      2995      2990      3003      2998      2995      2990      2999
      2998      2995      2990      3003      2999      2990      3003      3004
      2999      2990      3003      3005      2999      2990      3003      3006
      3000      2999      2990      3003      3001      2999      2990      3003
      3002      2999      2990      3003      3003      3006      3013      3009
      3004      3003      3006      3007      3004      3003      3006      3008
      3004      3003      3006      3013      3005      3003      3006      3007
      3005      3003      3006      3008      3005      3003      3006      3013
      3006      3013      3009      3010      3006      3013      3009      3011
      3006      3013      3009      3012      3007      3006      3013      3009
      3008      3006      3013      3009      3009      3012      3014      3015
      3009      3012      3014      3016      3009      3012      3014      3019
      3010      3009      3012      3014      3011      3009      3012      3014
      3012      3014      3019      3017      3012      3014      3019      3020
      3012      3014      3019      3021      3013      3009      3012      3014
      3014      3019      3017      3018      3014      3019      3017      3069
      3014      3019      3021      3022      3014      3019      3021      3023
      3014      3019      3021      3025      3015      3014      3019      3017
      3015      3014      3019      3020      3015      3014      3019      3021
      3016      3014      3019      3017      3016      3014      3019      3020
      3016      3014      3019      3021      3017      3019      3021      3022
      3017      3019      3021      3023      3017      3019      3021      3025
      3017      3069      3071      3072      3017      3069      3071      3073
      3017      3069      3071      3074      3018      3017      3019      3020
      3018      3017      3019      3021      3018      3017      3069      3070
      3018      3017      3069      3071      3019      3017      3069      3070
      3019      3017      3069      3071      3019      3021      3023      3024
      3019      3021      3025      3026      3019      3021      3025      3027
      3020      3019      3017      3069      3020      3019      3021      3022
      3020      3019      3021      3023      3020      3019      3021      3025
      3021      3019      3017      3069      3021      3025      3027      3028
      3021      3025      3027      3029      3022      3021      3023      3024
      3022      3021      3025      3026      3022      3021      3025      3027
      3023      3021      3025      3026      3023      3021      3025      3027
      3024      3023      3021      3025      3025      3027      3029      3030
      3025      3027      3029      3031      3025      3027      3029      3032
      3026      3025      3027      3028      3026      3025      3027      3029
      3027      3029      3032      3033      3027      3029      3032      3034
      3027      3029      3032      3035      3028      3027      3029      3030
      3028      3027      3029      3031      3028      3027      3029      3032
      3029      3032      3035      3036      3029      3032      3035      3037
      3029      3032      3035      3038      3030      3029      3032      3033
      3030      3029      3032      3034      3030      3029      3032      3035
      3031      3029      3032      3033      3031      3029      3032      3034
      3031      3029      3032      3035      3032      3035      3038      3039
      3032      3035      3038      3040      3032      3035      3038      3041
      3033      3032      3035      3036      3033      3032      3035      3037
      3033      3032      3035      3038      3034      3032      3035      3036
      3034      3032      3035      3037      3034      3032      3035      3038
      3035      3038      3041      3042      3035      3038      3041      3043
      3035      3038      3041      3044      3036      3035      3038      3039
      3036      3035      3038      3040      3036      3035      3038      3041
      3037      3035      3038      3039      3037      3035      3038      3040
      3037      3035      3038      3041      3038      3041      3044      3045
      3038      3041      3044      3046      3038      3041      3044      3047
      3039      3038      3041      3042      3039      3038      3041      3043
      3039      3038      3041      3044      3040      3038      3041      3042
      3040      3038      3041      3043      3040      3038      3041      3044
      3041      3044      3047      3048      3041      3044      3047      3049
      3041      3044      3047      3050      3042      3041      3044      3045
      3042      3041      3044      3046      3042      3041      3044      3047
      3043      3041      3044      3045      3043      3041      3044      3046
      3043      3041      3044      3047      3044      3047      3050      3051
      3044      3047      3050      3052      3044      3047      3050      3053
      3045      3044      3047      3048      3045      3044      3047      3049
      3045      3044      3047      3050      3046      3044      3047      3048
      3046      3044      3047      3049      3046      3044      3047      3050
      3047      3050      3053      3054      3047      3050      3053      3055
      3047      3050      3053      3056      3048      3047      3050      3051
      3048      3047      3050      3052      3048      3047      3050      3053
      3049      3047      3050      3051      3049      3047      3050      3052
      3049      3047      3050      3053      3050      3053      3056      3057
      3050      3053      3056      3058      3050      3053      3056      3059
      3051      3050      3053      3054      3051      3050      3053      3055
      3051      3050      3053      3056      3052      3050      3053      3054
      3052      3050      3053      3055      3052      3050      3053      3056
      3053      3056      3059      3060      3053      3056      3059      3061
      3053      3056      3059      3062      3054      3053      3056      3057
      3054      3053      3056      3058      3054      3053      3056      3059
      3055      3053      3056      3057      3055      3053      3056      3058
      3055      3053      3056      3059      3056      3059      3062      3063
      3056      3059      3062      3064      3056      3059      3062      3065
      3057      3056      3059      3060      3057      3056      3059      3061
      3057      3056      3059      3062      3058      3056      3059      3060
      3058      3056      3059      3061      3058      3056      3059      3062
      3059      3062      3065      3066      3059      3062      3065      3067
      3059      3062      3065      3068      3060      3059      3062      3063
      3060      3059      3062      3064      3060      3059      3062      3065
      3061      3059      3062      3063      3061      3059      3062      3064
      3061      3059      3062      3065      3063      3062      3065      3066
      3063      3062      3065      3067      3063      3062      3065      3068
      3064      3062      3065      3066      3064      3062      3065      3067
      3064      3062      3065      3068      3069      3071      3074      3075
      3069      3071      3074      3076      3069      3071      3074      3077
      3070      3069      3071      3072      3070      3069      3071      3073
      3070      3069      3071      3074      3071      3074      3077      3078
      3071      3074      3077      3079      3071      3074      3077      3080
      3072      3071      3074      3075      3072      3071      3074      3076
      3072      3071      3074      3077      3073      3071      3074      3075
      3073      3071      3074      3076      3073      3071      3074      3077
      3074      3077      3080      3081      3074      3077      3080      3082
      3074      3077      3080      3083      3075      3074      3077      3078
      3075      3074      3077      3079      3075      3074      3077      3080
      3076      3074      3077      3078      3076      3074      3077      3079
      3076      3074      3077      3080      3077      3080      3083      3084
      3077      3080      3083      3085      3077      3080      3083      3086
      3078      3077      3080      3081      3078      3077      3080      3082
      3078      3077      3080      3083      3079      3077      3080      3081
      3079      3077      3080      3082      3079      3077      3080      3083
      3080      3083      3086      3087      3080      3083      3086      3088
      3080      3083      3086      3089      3081      3080      3083      3084
      3081      3080      3083      3085      3081      3080      3083      3086
      3082      3080      3083      3084      3082      3080      3083      3085
      3082      3080      3083      3086      3083      3086      3089      3090
      3083      3086      3089      3091      3083      3086      3089      3092
      3084      3083      3086      3087      3084      3083      3086      3088
      3084      3083      3086      3089      3085      3083      3086      3087
      3085      3083      3086      3088      3085      3083      3086      3089
      3086      3089      3092      3093      3086      3089      3092      3094
      3087      3086      3089      3090      3087      3086      3089      3091
      3087      3086      3089      3092      3088      3086      3089      3090
      3088      3086      3089      3091      3088      3086      3089      3092
      3089      3092      3094      3095      3089      3092      3094      3096
      3090      3089      3092      3093      3090      3089      3092      3094
      3091      3089      3092      3093      3091      3089      3092      3094
      3092      3094      3096      3097      3092      3094      3096      3098
      3092      3094      3096      3099      3093      3092      3094      3095
      3093      3092      3094      3096      3094      3096      3099      3100
      3094      3096      3099      3101      3094      3096      3099      3102
      3095      3094      3096      3097      3095      3094      3096      3098
      3095      3094      3096      3099      3096      3099      3102      3103
      3096      3099      3102      3104      3096      3099      3102      3105
      3097      3096      3099      3100      3097      3096      3099      3101
      3097      3096      3099      3102      3098      3096      3099      3100
      3098      3096      3099      3101      3098      3096      3099      3102
      3099      3102      3105      3106      3099      3102      3105      3107
      3099      3102      3105      3108      3100      3099      3102      3103
      3100      3099      3102      3104      3100      3099      3102      3105
      3101      3099      3102      3103      3101      3099      3102      3104
      3101      3099      3102      3105      3102      3105      3108      3109
      3102      3105      3108      3110      3102      3105      3108      3111
      3103      3102      3105      3106      3103      3102      3105      3107
      3103      3102      3105      3108      3104      3102      3105      3106
      3104      3102      3105      3107      3104      3102      3105      3108
      3105      3108      3111      3112      3105      3108      3111      3113
      3105      3108      3111      3114      3106      3105      3108      3109
      3106      3105      3108      3110      3106      3105      3108      3111
      3107      3105      3108      3109      3107      3105      3108      3110
      3107      3105      3108      3111      3108      3111      3114      3115
      3108      3111      3114      3116      3108      3111      3114      3117
      3109      3108      3111      3112      3109      3108      3111      3113
      3109      3108      3111      3114      3110      3108      3111      3112
      3110      3108      3111      3113      3110      3108      3111      3114
      3111      3114      3117      3118      3111      3114      3117      3119
      3111      3114      3117      3120      3112      3111      3114      3115
      3112      3111      3114      3116      3112      3111      3114      3117
      3113      3111      3114      3115      3113      3111      3114      3116
      3113      3111      3114      3117      3115      3114      3117      3118
      3115      3114      3117      3119      3115      3114      3117      3120
      3116      3114      3117      3118      3116      3114      3117      3119
      3116      3114      3117      3120      3121      3134      3137      3138
      3121      3134      3137      3139      3121      3134      3137      3144
      3122      3121      3126      3127      3122      3121      3126      3128
      3122      3121      3126      3129      3122      3121      3130      3131
      3122      3121      3130      3132      3122      3121      3130      3133
      3122      3121      3134      3135      3122      3121      3134      3136
      3122      3121      3134      3137      3123      3122      3121      3126
      3123      3122      3121      3130      3123      3122      3121      3134
      3124      3122      3121      3126      3124      3122      3121      3130
      3124      3122      3121      3134      3125      3122      3121      3126
      3125      3122      3121      3130      3125      3122      3121      3134
      3126      3121      3130      3131      3126      3121      3130      3132
      3126      3121      3130      3133      3126      3121      3134      3135
      3126      3121      3134      3136      3126      3121      3134      3137
      3127      3126      3121      3130      3127      3126      3121      3134
      3128      3126      3121      3130      3128      3126      3121      3134
      3129      3126      3121      3130      3129      3126      3121      3134
      3130      3121      3134      3135      3130      3121      3134      3136
      3130      3121      3134      3137      3131      3130      3121      3134
      3132      3130      3121      3134      3133      3130      3121      3134
      3134      3137      3144      3140      3135      3134      3137      3138
      3135      3134      3137      3139      3135      3134      3137      3144
      3136      3134      3137      3138      3136      3134      3137      3139
      3136      3134      3137      3144      3137      3144      3140      3141
      3137      3144      3140      3142      3137      3144      3140      3143
      3138      3137      3144      3140      3139      3137      3144      3140
      3140      3143      3145      3146      3140      3143      3145      3147
      3140      3143      3145      3150      3141      3140      3143      3145
      3142      3140      3143      3145      3143      3145      3150      3148
      3143      3145      3150      3151      3143      3145      3150      3152
      3144      3140      3143      3145      3145      3150      3148      3149
      3145      3150      3148      3200      3145      3150      3152      3153
      3145      3150      3152      3154      3145      3150      3152      3156
      3146      3145      3150      3148      3146      3145      3150      3151
      3146      3145      3150      3152      3147      3145      3150      3148
      3147      3145      3150      3151      3147      3145      3150      3152
      3148      3150      3152      3153      3148      3150      3152      3154
      3148      3150      3152      3156      3148      3200      3202      3203
      3148      3200      3202      3204      3148      3200      3202      3205
      3149      3148      3150      3151      3149      3148      3150      3152
      3149      3148      3200      3201      3149      3148      3200      3202
      3150      3148      3200      3201      3150      3148      3200      3202
      3150      3152      3154      3155      3150      3152      3156      3157
      3150      3152      3156      3158      3151      3150      3148      3200
      3151      3150      3152      3153      3151      3150      3152      3154
      3151      3150      3152      3156      3152      3150      3148      3200
      3152      3156      3158      3159      3152      3156      3158      3160
      3153      3152      3154      3155      3153      3152      3156      3157
      3153      3152      3156      3158      3154      3152      3156      3157
      3154      3152      3156      3158      3155      3154      3152      3156
      3156      3158      3160      3161      3156      3158      3160      3162
      3156      3158      3160      3163      3157      3156      3158      3159
      3157      3156      3158      3160      3158      3160      3163      3164
      3158      3160      3163      3165      3158      3160      3163      3166
      3159      3158      3160      3161      3159      3158      3160      3162
      3159      3158      3160      3163      3160      3163      3166      3167
      3160      3163      3166      3168      3160      3163      3166      3169
      3161      3160      3163      3164      3161      3160      3163      3165
      3161      3160      3163      3166      3162      3160      3163      3164
      3162      3160      3163      3165      3162      3160      3163      3166
      3163      3166      3169      3170      3163      3166      3169      3171
      3163      3166      3169      3172      3164      3163      3166      3167
      3164      3163      3166      3168      3164      3163      3166      3169
      3165      3163      3166      3167      3165      3163      3166      3168
      3165      3163      3166      3169      3166      3169      3172      3173
      3166      3169      3172      3174      3166      3169      3172      3175
      3167      3166      3169      3170      3167      3166      3169      3171
      3167      3166      3169      3172      3168      3166      3169      3170
      3168      3166      3169      3171      3168      3166      3169      3172
      3169      3172      3175      3176      3169      3172      3175      3177
      3169      3172      3175      3178      3170      3169      3172      3173
      3170      3169      3172      3174      3170      3169      3172      3175
      3171      3169      3172      3173      3171      3169      3172      3174
      3171      3169      3172      3175      3172      3175      3178      3179
      3172      3175      3178      3180      3172      3175      3178      3181
      3173      3172      3175      3176      3173      3172      3175      3177
      3173      3172      3175      3178      3174      3172      3175      3176
      3174      3172      3175      3177      3174      3172      3175      3178
      3175      3178      3181      3182      3175      3178      3181      3183
      3175      3178      3181      3184      3176      3175      3178      3179
      3176      3175      3178      3180      3176      3175      3178      3181
      3177      3175      3178      3179      3177      3175      3178      3180
      3177      3175      3178      3181      3178      3181      3184      3185
      3178      3181      3184      3186      3178      3181      3184      3187
      3179      3178      3181      3182      3179      3178      3181      3183
      3179      3178      3181      3184      3180      3178      3181      3182
      3180      3178      3181      3183      3180      3178      3181      3184
      3181      3184      3187      3188      3181      3184      3187      3189
      3181      3184      3187      3190      3182      3181      3184      3185
      3182      3181      3184      3186      3182      3181      3184      3187
      3183      3181      3184      3185      3183      3181      3184      3186
      3183      3181      3184      3187      3184      3187      3190      3191
      3184      3187      3190      3192      3184      3187      3190      3193
      3185      3184      3187      3188      3185      3184      3187      3189
      3185      3184      3187      3190      3186      3184      3187      3188
      3186      3184      3187      3189      3186      3184      3187      3190
      3187      3190      3193      3194      3187      3190      3193      3195
      3187      3190      3193      3196      3188      3187      3190      3191
      3188      3187      3190      3192      3188      3187      3190      3193
      3189      3187      3190      3191      3189      3187      3190      3192
      3189      3187      3190      3193      3190      3193      3196      3197
      3190      3193      3196      3198      3190      3193      3196      3199
      3191      3190      3193      3194      3191      3190      3193      3195
      3191      3190      3193      3196      3192      3190      3193      3194
      3192      3190      3193      3195      3192      3190      3193      3196
      3194      3193      3196      3197      3194      3193      3196      3198
      3194      3193      3196      3199      3195      3193      3196      3197
      3195      3193      3196      3198      3195      3193      3196      3199
      3200      3202      3205      3206      3200      3202      3205      3207
      3200      3202      3205      3208      3201      3200      3202      3203
      3201      3200      3202      3204      3201      3200      3202      3205
      3202      3205      3208      3209      3202      3205      3208      3210
      3202      3205      3208      3211      3203      3202      3205      3206
      3203      3202      3205      3207      3203      3202      3205      3208
      3204      3202      3205      3206      3204      3202      3205      3207
      3204      3202      3205      3208      3205      3208      3211      3212
      3205      3208      3211      3213      3205      3208      3211      3214
      3206      3205      3208      3209      3206      3205      3208      3210
      3206      3205      3208      3211      3207      3205      3208      3209
      3207      3205      3208      3210      3207      3205      3208      3211
      3208      3211      3214      3215      3208      3211      3214      3216
      3208      3211      3214      3217      3209      3208      3211      3212
      3209      3208      3211      3213      3209      3208      3211      3214
      3210      3208      3211      3212      3210      3208      3211      3213
      3210      3208      3211      3214      3211      3214      3217      3218
      3211      3214      3217      3219      3211      3214      3217      3220
      3212      3211      3214      3215      3212      3211      3214      3216
      3212      3211      3214      3217      3213      3211      3214      3215
      3213      3211      3214      3216      3213      3211      3214      3217
      3214      3217      3220      3221      3214      3217      3220      3222
      3214      3217      3220      3223      3215      3214      3217      3218
      3215      3214      3217      3219      3215      3214      3217      3220
      3216      3214      3217      3218      3216      3214      3217      3219
      3216      3214      3217      3220      3217      3220      3223      3224
      3217      3220      3223      3225      3218      3217      3220      3221
      3218      3217      3220      3222      3218      3217      3220      3223
      3219      3217      3220      3221      3219      3217      3220      3222
      3219      3217      3220      3223      3220      3223      3225      3226
      3220      3223      3225      3227      3221      3220      3223      3224
      3221      3220      3223      3225      3222      3220      3223      3224
      3222      3220      3223      3225      3223      3225      3227      3228
      3223      3225      3227      3229      3223      3225      3227      3230
      3224      3223      3225      3226      3224      3223      3225      3227
      3225      3227      3230      3231      3225      3227      3230      3232
      3225      3227      3230      3233      3226      3225      3227      3228
      3226      3225      3227      3229      3226      3225      3227      3230
      3227      3230      3233      3234      3227      3230      3233      3235
      3227      3230      3233      3236      3228      3227      3230      3231
      3228      3227      3230      3232      3228      3227      3230      3233
      3229      3227      3230      3231      3229      3227      3230      3232
      3229      3227      3230      3233      3230      3233      3236      3237
      3230      3233      3236      3238      3230      3233      3236      3239
      3231      3230      3233      3234      3231      3230      3233      3235
      3231      3230      3233      3236      3232      3230      3233      3234
      3232      3230      3233      3235      3232      3230      3233      3236
      3233      3236      3239      3240      3233      3236      3239      3241
      3233      3236      3239      3242      3234      3233      3236      3237
      3234      3233      3236      3238      3234      3233      3236      3239
      3235      3233      3236      3237      3235      3233      3236      3238
      3235      3233      3236      3239      3236      3239      3242      3243
      3236      3239      3242      3244      3236      3239      3242      3245
      3237      3236      3239      3240      3237      3236      3239      3241
      3237      3236      3239      3242      3238      3236      3239      3240
      3238      3236      3239      3241      3238      3236      3239      3242
      3239      3242      3245      3246      3239      3242      3245      3247
      3239      3242      3245      3248      3240      3239      3242      3243
      3240      3239      3242      3244      3240      3239      3242      3245
      3241      3239      3242      3243      3241      3239      3242      3244
      3241      3239      3242      3245      3242      3245      3248      3249
      3242      3245      3248      3250      3242      3245      3248      3251
      3243      3242      3245      3246      3243      3242      3245      3247
      3243      3242      3245      3248      3244      3242      3245      3246
      3244      3242      3245      3247      3244      3242      3245      3248
      3246      3245      3248      3249      3246      3245      3248      3250
      3246      3245      3248      3251      3247      3245      3248      3249
      3247      3245      3248      3250      3247      3245      3248      3251
      3252      3265      3268      3269      3252      3265      3268      3270
      3252      3265      3268      3275      3253      3252      3257      3258
      3253      3252      3257      3259      3253      3252      3257      3260
      3253      3252      3261      3262      3253      3252      3261      3263
      3253      3252      3261      3264      3253      3252      3265      3266
      3253      3252      3265      3267      3253      3252      3265      3268
      3254      3253      3252      3257      3254      3253      3252      3261
      3254      3253      3252      3265      3255      3253      3252      3257
      3255      3253      3252      3261      3255      3253      3252      3265
      3256      3253      3252      3257      3256      3253      3252      3261
      3256      3253      3252      3265      3257      3252      3261      3262
      3257      3252      3261      3263      3257      3252      3261      3264
      3257      3252      3265      3266      3257      3252      3265      3267
      3257      3252      3265      3268      3258      3257      3252      3261
      3258      3257      3252      3265      3259      3257      3252      3261
      3259      3257      3252      3265      3260      3257      3252      3261
      3260      3257      3252      3265      3261      3252      3265      3266
      3261      3252      3265      3267      3261      3252      3265      3268
      3262      3261      3252      3265      3263      3261      3252      3265
      3264      3261      3252      3265      3265      3268      3275      3271
      3266      3265      3268      3269      3266      3265      3268      3270
      3266      3265      3268      3275      3267      3265      3268      3269
      3267      3265      3268      3270      3267      3265      3268      3275
      3268      3275      3271      3272      3268      3275      3271      3273
      3268      3275      3271      3274      3269      3268      3275      3271
      3270      3268      3275      3271      3271      3274      3276      3277
      3271      3274      3276      3278      3271      3274      3276      3281
      3272      3271      3274      3276      3273      3271      3274      3276
      3274      3276      3281      3279      3274      3276      3281      3282
      3274      3276      3281      3283      3275      3271      3274      3276
      3276      3281      3279      3280      3276      3281      3279      3331
      3276      3281      3283      3284      3276      3281      3283      3285
      3276      3281      3283      3287      3277      3276      3281      3279
      3277      3276      3281      3282      3277      3276      3281      3283
      3278      3276      3281      3279      3278      3276      3281      3282
      3278      3276      3281      3283      3279      3281      3283      3284
      3279      3281      3283      3285      3279      3281      3283      3287
      3279      3331      3333      3334      3279      3331      3333      3335
      3279      3331      3333      3336      3280      3279      3281      3282
      3280      3279      3281      3283      3280      3279      3331      3332
      3280      3279      3331      3333      3281      3279      3331      3332
      3281      3279      3331      3333      3281      3283      3285      3286
      3281      3283      3287      3288      3281      3283      3287      3289
      3282      3281      3279      3331      3282      3281      3283      3284
      3282      3281      3283      3285      3282      3281      3283      3287
      3283      3281      3279      3331      3283      3287      3289      3290
      3283      3287      3289      3291      3284      3283      3285      3286
      3284      3283      3287      3288      3284      3283      3287      3289
      3285      3283      3287      3288      3285      3283      3287      3289
      3286      3285      3283      3287      3287      3289      3291      3292
      3287      3289      3291      3293      3287      3289      3291      3294
      3288      3287      3289      3290      3288      3287      3289      3291
      3289      3291      3294      3295      3289      3291      3294      3296
      3289      3291      3294      3297      3290      3289      3291      3292
      3290      3289      3291      3293      3290      3289      3291      3294
      3291      3294      3297      3298      3291      3294      3297      3299
      3291      3294      3297      3300      3292      3291      3294      3295
      3292      3291      3294      3296      3292      3291      3294      3297
      3293      3291      3294      3295      3293      3291      3294      3296
      3293      3291      3294      3297      3294      3297      3300      3301
      3294      3297      3300      3302      3294      3297      3300      3303
      3295      3294      3297      3298      3295      3294      3297      3299
      3295      3294      3297      3300      3296      3294      3297      3298
      3296      3294      3297      3299      3296      3294      3297      3300
      3297      3300      3303      3304      3297      3300      3303      3305
      3297      3300      3303      3306      3298      3297      3300      3301
      3298      3297      3300      3302      3298      3297      3300      3303
      3299      3297      3300      3301      3299      3297      3300      3302
      3299      3297      3300      3303      3300      3303      3306      3307
      3300      3303      3306      3308      3300      3303      3306      3309
      3301      3300      3303      3304      3301      3300      3303      3305
      3301      3300      3303      3306      3302      3300      3303      3304
      3302      3300      3303      3305      3302      3300      3303      3306
      3303      3306      3309      3310      3303      3306      3309      3311
      3303      3306      3309      3312      3304      3303      3306      3307
      3304      3303      3306      3308      3304      3303      3306      3309
      3305      3303      3306      3307      3305      3303      3306      3308
      3305      3303      3306      3309      3306      3309      3312      3313
      3306      3309      3312      3314      3306      3309      3312      3315
      3307      3306      3309      3310      3307      3306      3309      3311
      3307      3306      3309      3312      3308      3306      3309      3310
      3308      3306      3309      3311      3308      3306      3309      3312
      3309      3312      3315      3316      3309      3312      3315      3317
      3309      3312      3315      3318      3310      3309      3312      3313
      3310      3309      3312      3314      3310      3309      3312      3315
      3311      3309      3312      3313      3311      3309      3312      3314
      3311      3309      3312      3315      3312      3315      3318      3319
      3312      3315      3318      3320      3312      3315      3318      3321
      3313      3312      3315      3316      3313      3312      3315      3317
      3313      3312      3315      3318      3314      3312      3315      3316
      3314      3312      3315      3317      3314      3312      3315      3318
      3315      3318      3321      3322      3315      3318      3321      3323
      3315      3318      3321      3324      3316      3315      3318      3319
      3316      3315      3318      3320      3316      3315      3318      3321
      3317      3315      3318      3319      3317      3315      3318      3320
      3317      3315      3318      3321      3318      3321      3324      3325
      3318      3321      3324      3326      3318      3321      3324      3327
      3319      3318      3321      3322      3319      3318      3321      3323
      3319      3318      3321      3324      3320      3318      3321      3322
      3320      3318      3321      3323      3320      3318      3321      3324
      3321      3324      3327      3328      3321      3324      3327      3329
      3321      3324      3327      3330      3322      3321      3324      3325
      3322      3321      3324      3326      3322      3321      3324      3327
      3323      3321      3324      3325      3323      3321      3324      3326
      3323      3321      3324      3327      3325      3324      3327      3328
      3325      3324      3327      3329      3325      3324      3327      3330
      3326      3324      3327      3328      3326      3324      3327      3329
      3326      3324      3327      3330      3331      3333      3336      3337
      3331      3333      3336      3338      3331      3333      3336      3339
      3332      3331      3333      3334      3332      3331      3333      3335
      3332      3331      3333      3336      3333      3336      3339      3340
      3333      3336      3339      3341      3333      3336      3339      3342
      3334      3333      3336      3337      3334      3333      3336      3338
      3334      3333      3336      3339      3335      3333      3336      3337
      3335      3333      3336      3338      3335      3333      3336      3339
      3336      3339      3342      3343      3336      3339      3342      3344
      3336      3339      3342      3345      3337      3336      3339      3340
      3337      3336      3339      3341      3337      3336      3339      3342
      3338      3336      3339      3340      3338      3336      3339      3341
      3338      3336      3339      3342      3339      3342      3345      3346
      3339      3342      3345      3347      3339      3342      3345      3348
      3340      3339      3342      3343      3340      3339      3342      3344
      3340      3339      3342      3345      3341      3339      3342      3343
      3341      3339      3342      3344      3341      3339      3342      3345
      3342      3345      3348      3349      3342      3345      3348      3350
      3342      3345      3348      3351      3343      3342      3345      3346
      3343      3342      3345      3347      3343      3342      3345      3348
      3344      3342      3345      3346      3344      3342      3345      3347
      3344      3342      3345      3348      3345      3348      3351      3352
      3345      3348      3351      3353      3345      3348      3351      3354
      3346      3345      3348      3349      3346      3345      3348      3350
      3346      3345      3348      3351      3347      3345      3348      3349
      3347      3345      3348      3350      3347      3345      3348      3351
      3348      3351      3354      3355      3348      3351      3354      3356
      3349      3348      3351      3352      3349      3348      3351      3353
      3349      3348      3351      3354      3350      3348      3351      3352
      3350      3348      3351      3353      3350      3348      3351      3354
      3351      3354      3356      3357      3351      3354      3356      3358
      3352      3351      3354      3355      3352      3351      3354      3356
      3353      3351      3354      3355      3353      3351      3354      3356
      3354      3356      3358      3359      3354      3356      3358      3360
      3354      3356      3358      3361      3355      3354      3356      3357
      3355      3354      3356      3358      3356      3358      3361      3362
      3356      3358      3361      3363      3356      3358      3361      3364
      3357      3356      3358      3359      3357      3356      3358      3360
      3357      3356      3358      3361      3358      3361      3364      3365
      3358      3361      3364      3366      3358      3361      3364      3367
      3359      3358      3361      3362      3359      3358      3361      3363
      3359      3358      3361      3364      3360      3358      3361      3362
      3360      3358      3361      3363      3360      3358      3361      3364
      3361      3364      3367      3368      3361      3364      3367      3369
      3361      3364      3367      3370      3362      3361      3364      3365
      3362      3361      3364      3366      3362      3361      3364      3367
      3363      3361      3364      3365      3363      3361      3364      3366
      3363      3361      3364      3367      3364      3367      3370      3371
      3364      3367      3370      3372      3364      3367      3370      3373
      3365      3364      3367      3368      3365      3364      3367      3369
      3365      3364      3367      3370      3366      3364      3367      3368
      3366      3364      3367      3369      3366      3364      3367      3370
      3367      3370      3373      3374      3367      3370      3373      3375
      3367      3370      3373      3376      3368      3367      3370      3371
      3368      3367      3370      3372      3368      3367      3370      3373
      3369      3367      3370      3371      3369      3367      3370      3372
      3369      3367      3370      3373      3370      3373      3376      3377
      3370      3373      3376      3378      3370      3373      3376      3379
      3371      3370      3373      3374      3371      3370      3373      3375
      3371      3370      3373      3376      3372      3370      3373      3374
      3372      3370      3373      3375      3372      3370      3373      3376
      3373      3376      3379      3380      3373      3376      3379      3381
      3373      3376      3379      3382      3374      3373      3376      3377
      3374      3373      3376      3378      3374      3373      3376      3379
      3375      3373      3376      3377      3375      3373      3376      3378
      3375      3373      3376      3379      3377      3376      3379      3380
      3377      3376      3379      3381      3377      3376      3379      3382
      3378      3376      3379      3380      3378      3376      3379      3381
      3378      3376      3379      3382      3383      3387      3390      3391
      3383      3387      3390      3392      3383      3387      3390      3396
      3384      3383      3387      3388      3384      3383      3387      3389
      3384      3383      3387      3390      3385      3383      3387      3388
      3385      3383      3387      3389      3385      3383      3387      3390
      3386      3383      3387      3388      3386      3383      3387      3389
      3386      3383      3387      3390      3387      3390      3396      3393
      3388      3387      3390      3391      3388      3387      3390      3392
      3388      3387      3390      3396      3389      3387      3390      3391
      3389      3387      3390      3392      3389      3387      3390      3396
      3390      3396      3393      3394      3390      3396      3393      3395
      3390      3396      3393      3397      3391      3390      3396      3393
      3392      3390      3396      3393      3393      3397      3398      3399
      3393      3397      3398      3400      3393      3397      3398      3401
      3394      3393      3397      3398      3395      3393      3397      3398
      3396      3393      3397      3398      3397      3398      3401      3402
      3397      3398      3401      3403      3397      3398      3401      3409
      3398      3401      3403      3404      3398      3401      3409      3410
      3398      3401      3409      3411      3398      3401      3409      3412
      3399      3398      3401      3402      3399      3398      3401      3403
      3399      3398      3401      3409      3400      3398      3401      3402
      3400      3398      3401      3403      3400      3398      3401      3409
      3401      3403      3404      3405      3401      3403      3404      3406
      3401      3409      3412      3413      3402      3401      3403      3404
      3402      3401      3409      3410      3402      3401      3409      3411
      3402      3401      3409      3412      3403      3401      3409      3410
      3403      3401      3409      3411      3403      3401      3409      3412
      3403      3404      3406      3407      3403      3404      3406      3408
      3403      3404      3406      3418      3404      3403      3401      3409
      3404      3406      3418      3419      3404      3406      3418      3420
      3404      3406      3418      3421      3405      3404      3406      3407
      3405      3404      3406      3408      3405      3404      3406      3418
      3406      3418      3421      3422      3406      3418      3421      3423
      3406      3418      3421      3424      3407      3406      3418      3419
      3407      3406      3418      3420      3407      3406      3418      3421
      3408      3406      3418      3419      3408      3406      3418      3420
      3408      3406      3418      3421      3409      3412      3413      3414
      3409      3412      3413      3415      3410      3409      3412      3413
      3411      3409      3412      3413      3412      3413      3415      3416
      3412      3413      3415      3417      3412      3413      3415      3465
      3413      3415      3465      3466      3413      3415      3465      3467
      3413      3415      3465      3468      3414      3413      3415      3416
      3414      3413      3415      3417      3414      3413      3415      3465
      3415      3465      3468      3469      3415      3465      3468      3470
      3415      3465      3468      3471      3416      3415      3465      3466
      3416      3415      3465      3467      3416      3415      3465      3468
      3417      3415      3465      3466      3417      3415      3465      3467
      3417      3415      3465      3468      3418      3421      3424      3425
      3418      3421      3424      3426      3418      3421      3424      3427
      3419      3418      3421      3422      3419      3418      3421      3423
      3419      3418      3421      3424      3420      3418      3421      3422
      3420      3418      3421      3423      3420      3418      3421      3424
      3421      3424      3427      3428      3421      3424      3427      3429
      3421      3424      3427      3430      3422      3421      3424      3425
      3422      3421      3424      3426      3422      3421      3424      3427
      3423      3421      3424      3425      3423      3421      3424      3426
      3423      3421      3424      3427      3424      3427      3430      3431
      3424      3427      3430      3432      3424      3427      3430      3433
      3425      3424      3427      3428      3425      3424      3427      3429
      3425      3424      3427      3430      3426      3424      3427      3428
      3426      3424      3427      3429      3426      3424      3427      3430
      3427      3430      3433      3434      3427      3430      3433      3435
      3427      3430      3433      3436      3428      3427      3430      3431
      3428      3427      3430      3432      3428      3427      3430      3433
      3429      3427      3430      3431      3429      3427      3430      3432
      3429      3427      3430      3433      3430      3433      3436      3437
      3430      3433      3436      3438      3431      3430      3433      3434
      3431      3430      3433      3435      3431      3430      3433      3436
      3432      3430      3433      3434      3432      3430      3433      3435
      3432      3430      3433      3436      3433      3436      3438      3439
      3433      3436      3438      3440      3434      3433      3436      3437
      3434      3433      3436      3438      3435      3433      3436      3437
      3435      3433      3436      3438      3436      3438      3440      3441
      3436      3438      3440      3442      3436      3438      3440      3443
      3437      3436      3438      3439      3437      3436      3438      3440
      3438      3440      3443      3444      3438      3440      3443      3445
      3438      3440      3443      3446      3439      3438      3440      3441
      3439      3438      3440      3442      3439      3438      3440      3443
      3440      3443      3446      3447      3440      3443      3446      3448
      3440      3443      3446      3449      3441      3440      3443      3444
      3441      3440      3443      3445      3441      3440      3443      3446
      3442      3440      3443      3444      3442      3440      3443      3445
      3442      3440      3443      3446      3443      3446      3449      3450
      3443      3446      3449      3451      3443      3446      3449      3452
      3444      3443      3446      3447      3444      3443      3446      3448
      3444      3443      3446      3449      3445      3443      3446      3447
      3445      3443      3446      3448      3445      3443      3446      3449
      3446      3449      3452      3453      3446      3449      3452      3454
      3446      3449      3452      3455      3447      3446      3449      3450
      3447      3446      3449      3451      3447      3446      3449      3452
      3448      3446      3449      3450      3448      3446      3449      3451
      3448      3446      3449      3452      3449      3452      3455      3456
      3449      3452      3455      3457      3449      3452      3455      3458
      3450      3449      3452      3453      3450      3449      3452      3454
      3450      3449      3452      3455      3451      3449      3452      3453
      3451      3449      3452      3454      3451      3449      3452      3455
      3452      3455      3458      3459      3452      3455      3458      3460
      3452      3455      3458      3461      3453      3452      3455      3456
      3453      3452      3455      3457      3453      3452      3455      3458
      3454      3452      3455      3456      3454      3452      3455      3457
      3454      3452      3455      3458      3455      3458      3461      3462
      3455      3458      3461      3463      3455      3458      3461      3464
      3456      3455      3458      3459      3456      3455      3458      3460
      3456      3455      3458      3461      3457      3455      3458      3459
      3457      3455      3458      3460      3457      3455      3458      3461
      3459      3458      3461      3462      3459      3458      3461      3463
      3459      3458      3461      3464      3460      3458      3461      3462
      3460      3458      3461      3463      3460      3458      3461      3464
      3465      3468      3471      3472      3465      3468      3471      3473
      3465      3468      3471      3474      3466      3465      3468      3469
      3466      3465      3468      3470      3466      3465      3468      3471
      3467      3465      3468      3469      3467      3465      3468      3470
      3467      3465      3468      3471      3468      3471      3474      3475
      3468      3471      3474      3476      3468      3471      3474      3477
      3469      3468      3471      3472      3469      3468      3471      3473
      3469      3468      3471      3474      3470      3468      3471      3472
      3470      3468      3471      3473      3470      3468      3471      3474
      3471      3474      3477      3478      3471      3474      3477      3479
      3471      3474      3477      3480      3472      3471      3474      3475
      3472      3471      3474      3476      3472      3471      3474      3477
      3473      3471      3474      3475      3473      3471      3474      3476
      3473      3471      3474      3477      3474      3477      3480      3481
      3474      3477      3480      3482      3474      3477      3480      3483
      3475      3474      3477      3478      3475      3474      3477      3479
      3475      3474      3477      3480      3476      3474      3477      3478
      3476      3474      3477      3479      3476      3474      3477      3480
      3477      3480      3483      3484      3477      3480      3483      3485
      3477      3480      3483      3486      3478      3477      3480      3481
      3478      3477      3480      3482      3478      3477      3480      3483
      3479      3477      3480      3481      3479      3477      3480      3482
      3479      3477      3480      3483      3480      3483      3486      3487
      3480      3483      3486      3488      3480      3483      3486      3489
      3481      3480      3483      3484      3481      3480      3483      3485
      3481      3480      3483      3486      3482      3480      3483      3484
      3482      3480      3483      3485      3482      3480      3483      3486
      3483      3486      3489      3490      3483      3486      3489      3491
      3483      3486      3489      3492      3484      3483      3486      3487
      3484      3483      3486      3488      3484      3483      3486      3489
      3485      3483      3486      3487      3485      3483      3486      3488
      3485      3483      3486      3489      3486      3489      3492      3493
      3486      3489      3492      3494      3486      3489      3492      3495
      3487      3486      3489      3490      3487      3486      3489      3491
      3487      3486      3489      3492      3488      3486      3489      3490
      3488      3486      3489      3491      3488      3486      3489      3492
      3489      3492      3495      3496      3489      3492      3495      3497
      3489      3492      3495      3498      3490      3489      3492      3493
      3490      3489      3492      3494      3490      3489      3492      3495
      3491      3489      3492      3493      3491      3489      3492      3494
      3491      3489      3492      3495      3492      3495      3498      3499
      3492      3495      3498      3500      3492      3495      3498      3501
      3493      3492      3495      3496      3493      3492      3495      3497
      3493      3492      3495      3498      3494      3492      3495      3496
      3494      3492      3495      3497      3494      3492      3495      3498
      3495      3498      3501      3502      3495      3498      3501      3503
      3495      3498      3501      3504      3496      3495      3498      3499
      3496      3495      3498      3500      3496      3495      3498      3501
      3497      3495      3498      3499      3497      3495      3498      3500
      3497      3495      3498      3501      3498      3501      3504      3505
      3498      3501      3504      3506      3498      3501      3504      3507
      3499      3498      3501      3502      3499      3498      3501      3503
      3499      3498      3501      3504      3500      3498      3501      3502
      3500      3498      3501      3503      3500      3498      3501      3504
      3501      3504      3507      3508      3501      3504      3507      3509
      3501      3504      3507      3510      3502      3501      3504      3505
      3502      3501      3504      3506      3502      3501      3504      3507
      3503      3501      3504      3505      3503      3501      3504      3506
      3503      3501      3504      3507      3504      3507      3510      3511
      3504      3507      3510      3512      3504      3507      3510      3513
      3505      3504      3507      3508      3505      3504      3507      3509
      3505      3504      3507      3510      3506      3504      3507      3508
      3506      3504      3507      3509      3506      3504      3507      3510
      3508      3507      3510      3511      3508      3507      3510      3512
      3508      3507      3510      3513      3509      3507      3510      3511
      3509      3507      3510      3512      3509      3507      3510      3513
      3514      3527      3530      3531      3514      3527      3530      3532
      3514      3527      3530      3537      3515      3514      3519      3520
      3515      3514      3519      3521      3515      3514      3519      3522
      3515      3514      3523      3524      3515      3514      3523      3525
      3515      3514      3523      3526      3515      3514      3527      3528
      3515      3514      3527      3529      3515      3514      3527      3530
      3516      3515      3514      3519      3516      3515      3514      3523
      3516      3515      3514      3527      3517      3515      3514      3519
      3517      3515      3514      3523      3517      3515      3514      3527
      3518      3515      3514      3519      3518      3515      3514      3523
      3518      3515      3514      3527      3519      3514      3523      3524
      3519      3514      3523      3525      3519      3514      3523      3526
      3519      3514      3527      3528      3519      3514      3527      3529
      3519      3514      3527      3530      3520      3519      3514      3523
      3520      3519      3514      3527      3521      3519      3514      3523
      3521      3519      3514      3527      3522      3519      3514      3523
      3522      3519      3514      3527      3523      3514      3527      3528
      3523      3514      3527      3529      3523      3514      3527      3530
      3524      3523      3514      3527      3525      3523      3514      3527
      3526      3523      3514      3527      3527      3530      3537      3533
      3528      3527      3530      3531      3528      3527      3530      3532
      3528      3527      3530      3537      3529      3527      3530      3531
      3529      3527      3530      3532      3529      3527      3530      3537
      3530      3537      3533      3534      3530      3537      3533      3535
      3530      3537      3533      3536      3531      3530      3537      3533
      3532      3530      3537      3533      3533      3536      3538      3539
      3533      3536      3538      3540      3533      3536      3538      3543
      3534      3533      3536      3538      3535      3533      3536      3538
      3536      3538      3543      3541      3536      3538      3543      3544
      3536      3538      3543      3545      3537      3533      3536      3538
      3538      3543      3541      3542      3538      3543      3541      3593
      3538      3543      3545      3546      3538      3543      3545      3547
      3538      3543      3545      3549      3539      3538      3543      3541
      3539      3538      3543      3544      3539      3538      3543      3545
      3540      3538      3543      3541      3540      3538      3543      3544
      3540      3538      3543      3545      3541      3543      3545      3546
      3541      3543      3545      3547      3541      3543      3545      3549
      3541      3593      3595      3596      3541      3593      3595      3597
      3541      3593      3595      3598      3542      3541      3543      3544
      3542      3541      3543      3545      3542      3541      3593      3594
      3542      3541      3593      3595      3543      3541      3593      3594
      3543      3541      3593      3595      3543      3545      3547      3548
      3543      3545      3549      3550      3543      3545      3549      3551
      3544      3543      3541      3593      3544      3543      3545      3546
      3544      3543      3545      3547      3544      3543      3545      3549
      3545      3543      3541      3593      3545      3549      3551      3552
      3545      3549      3551      3553      3546      3545      3547      3548
      3546      3545      3549      3550      3546      3545      3549      3551
      3547      3545      3549      3550      3547      3545      3549      3551
      3548      3547      3545      3549      3549      3551      3553      3554
      3549      3551      3553      3555      3549      3551      3553      3556
      3550      3549      3551      3552      3550      3549      3551      3553
      3551      3553      3556      3557      3551      3553      3556      3558
      3551      3553      3556      3559      3552      3551      3553      3554
      3552      3551      3553      3555      3552      3551      3553      3556
      3553      3556      3559      3560      3553      3556      3559      3561
      3553      3556      3559      3562      3554      3553      3556      3557
      3554      3553      3556      3558      3554      3553      3556      3559
      3555      3553      3556      3557      3555      3553      3556      3558
      3555      3553      3556      3559      3556      3559      3562      3563
      3556      3559      3562      3564      3556      3559      3562      3565
      3557      3556      3559      3560      3557      3556      3559      3561
      3557      3556      3559      3562      3558      3556      3559      3560
      3558      3556      3559      3561      3558      3556      3559      3562
      3559      3562      3565      3566      3559      3562      3565      3567
      3559      3562      3565      3568      3560      3559      3562      3563
      3560      3559      3562      3564      3560      3559      3562      3565
      3561      3559      3562      3563      3561      3559      3562      3564
      3561      3559      3562      3565      3562      3565      3568      3569
      3562      3565      3568      3570      3562      3565      3568      3571
      3563      3562      3565      3566      3563      3562      3565      3567
      3563      3562      3565      3568      3564      3562      3565      3566
      3564      3562      3565      3567      3564      3562      3565      3568
      3565      3568      3571      3572      3565      3568      3571      3573
      3565      3568      3571      3574      3566      3565      3568      3569
      3566      3565      3568      3570      3566      3565      3568      3571
      3567      3565      3568      3569      3567      3565      3568      3570
      3567      3565      3568      3571      3568      3571      3574      3575
      3568      3571      3574      3576      3568      3571      3574      3577
      3569      3568      3571      3572      3569      3568      3571      3573
      3569      3568      3571      3574      3570      3568      3571      3572
      3570      3568      3571      3573      3570      3568      3571      3574
      3571      3574      3577      3578      3571      3574      3577      3579
      3571      3574      3577      3580      3572      3571      3574      3575
      3572      3571      3574      3576      3572      3571      3574      3577
      3573      3571      3574      3575      3573      3571      3574      3576
      3573      3571      3574      3577      3574      3577      3580      3581
      3574      3577      3580      3582      3574      3577      3580      3583
      3575      3574      3577      3578      3575      3574      3577      3579
      3575      3574      3577      3580      3576      3574      3577      3578
      3576      3574      3577      3579      3576      3574      3577      3580
      3577      3580      3583      3584      3577      3580      3583      3585
      3577      3580      3583      3586      3578      3577      3580      3581
      3578      3577      3580      3582      3578      3577      3580      3583
      3579      3577      3580      3581      3579      3577      3580      3582
      3579      3577      3580      3583      3580      3583      3586      3587
      3580      3583      3586      3588      3580      3583      3586      3589
      3581      3580      3583      3584      3581      3580      3583      3585
      3581      3580      3583      3586      3582      3580      3583      3584
      3582      3580      3583      3585      3582      3580      3583      3586
      3583      3586      3589      3590      3583      3586      3589      3591
      3583      3586      3589      3592      3584      3583      3586      3587
      3584      3583      3586      3588      3584      3583      3586      3589
      3585      3583      3586      3587      3585      3583      3586      3588
      3585      3583      3586      3589      3587      3586      3589      3590
      3587      3586      3589      3591      3587      3586      3589      3592
      3588      3586      3589      3590      3588      3586      3589      3591
      3588      3586      3589      3592      3593      3595      3598      3599
      3593      3595      3598      3600      3593      3595      3598      3601
      3594      3593      3595      3596      3594      3593      3595      3597
      3594      3593      3595      3598      3595      3598      3601      3602
      3595      3598      3601      3603      3595      3598      3601      3604
      3596      3595      3598      3599      3596      3595      3598      3600
      3596      3595      3598      3601      3597      3595      3598      3599
      3597      3595      3598      3600      3597      3595      3598      3601
      3598      3601      3604      3605      3598      3601      3604      3606
      3598      3601      3604      3607      3599      3598      3601      3602
      3599      3598      3601      3603      3599      3598      3601      3604
      3600      3598      3601      3602      3600      3598      3601      3603
      3600      3598      3601      3604      3601      3604      3607      3608
      3601      3604      3607      3609      3601      3604      3607      3610
      3602      3601      3604      3605      3602      3601      3604      3606
      3602      3601      3604      3607      3603      3601      3604      3605
      3603      3601      3604      3606      3603      3601      3604      3607
      3604      3607      3610      3611      3604      3607      3610      3612
      3604      3607      3610      3613      3605      3604      3607      3608
      3605      3604      3607      3609      3605      3604      3607      3610
      3606      3604      3607      3608      3606      3604      3607      3609
      3606      3604      3607      3610      3607      3610      3613      3614
      3607      3610      3613      3615      3607      3610      3613      3616
      3608      3607      3610      3611      3608      3607      3610      3612
      3608      3607      3610      3613      3609      3607      3610      3611
      3609      3607      3610      3612      3609      3607      3610      3613
      3610      3613      3616      3617      3610      3613      3616      3618
      3611      3610      3613      3614      3611      3610      3613      3615
      3611      3610      3613      3616      3612      3610      3613      3614
      3612      3610      3613      3615      3612      3610      3613      3616
      3613      3616      3618      3619      3613      3616      3618      3620
      3614      3613      3616      3617      3614      3613      3616      3618
      3615      3613      3616      3617      3615      3613      3616      3618
      3616      3618      3620      3621      3616      3618      3620      3622
      3616      3618      3620      3623      3617      3616      3618      3619
      3617      3616      3618      3620      3618      3620      3623      3624
      3618      3620      3623      3625      3618      3620      3623      3626
      3619      3618      3620      3621      3619      3618      3620      3622
      3619      3618      3620      3623      3620      3623      3626      3627
      3620      3623      3626      3628      3620      3623      3626      3629
      3621      3620      3623      3624      3621      3620      3623      3625
      3621      3620      3623      3626      3622      3620      3623      3624
      3622      3620      3623      3625      3622      3620      3623      3626
      3623      3626      3629      3630      3623      3626      3629      3631
      3623      3626      3629      3632      3624      3623      3626      3627
      3624      3623      3626      3628      3624      3623      3626      3629
      3625      3623      3626      3627      3625      3623      3626      3628
      3625      3623      3626      3629      3626      3629      3632      3633
      3626      3629      3632      3634      3626      3629      3632      3635
      3627      3626      3629      3630      3627      3626      3629      3631
      3627      3626      3629      3632      3628      3626      3629      3630
      3628      3626      3629      3631      3628      3626      3629      3632
      3629      3632      3635      3636      3629      3632      3635      3637
      3629      3632      3635      3638      3630      3629      3632      3633
      3630      3629      3632      3634      3630      3629      3632      3635
      3631      3629      3632      3633      3631      3629      3632      3634
      3631      3629      3632      3635      3632      3635      3638      3639
      3632      3635      3638      3640      3632      3635      3638      3641
      3633      3632      3635      3636      3633      3632      3635      3637
      3633      3632      3635      3638      3634      3632      3635      3636
      3634      3632      3635      3637      3634      3632      3635      3638
      3635      3638      3641      3642      3635      3638      3641      3643
      3635      3638      3641      3644      3636      3635      3638      3639
      3636      3635      3638      3640      3636      3635      3638      3641
      3637      3635      3638      3639      3637      3635      3638      3640
      3637      3635      3638      3641      3639      3638      3641      3642
      3639      3638      3641      3643      3639      3638      3641      3644
      3640      3638      3641      3642      3640      3638      3641      3643
      3640      3638      3641      3644      3645      3649      3652      3653
      3645      3649      3652      3683      3645      3691      3688      3683
      3645      3691      3688      3689      3645      3691      3688      3690
      3646      3645      3647      3648      3646      3645      3649      3650
      3646      3645      3649      3651      3646      3645      3649      3652
      3646      3645      3691      3688      3646      3645      3691      3692
      3646      3645      3691      3693      3647      3645      3649      3650
      3647      3645      3649      3651      3647      3645      3649      3652
      3647      3645      3691      3688      3647      3645      3691      3692
      3647      3645      3691      3693      3648      3647      3645      3649
      3648      3647      3645      3691      3649      3645      3691      3688
      3649      3645      3691      3692      3649      3645      3691      3693
      3649      3652      3653      3654      3649      3652      3653      3655
      3649      3652      3683      3681      3649      3652      3683      3684
      3649      3652      3683      3688      3650      3649      3645      3691
      3650      3649      3652      3653      3650      3649      3652      3683
      3651      3649      3645      3691      3651      3649      3652      3653
      3651      3649      3652      3683      3652      3649      3645      3691
      3652      3653      3655      3656      3652      3653      3655      3657
      3652      3653      3655      3658      3652      3683      3681      3658
      3652      3683      3681      3678      3652      3683      3681      3682
      3652      3683      3684      3685      3652      3683      3684      3686
      3652      3683      3684      3687      3652      3683      3688      3689
      3652      3683      3688      3690      3652      3683      3688      3691
      3653      3652      3683      3681      3653      3652      3683      3684
      3653      3652      3683      3688      3653      3655      3658      3659
      3653      3655      3658      3660      3653      3655      3658      3681
      3654      3653      3652      3683      3654      3653      3655      3656
      3654      3653      3655      3657      3654      3653      3655      3658
      3655      3653      3652      3683      3655      3658      3660      3661
      3655      3658      3660      3662      3655      3658      3660      3670
      3655      3658      3681      3678      3655      3658      3681      3682
      3655      3658      3681      3683      3656      3655      3658      3659
      3656      3655      3658      3660      3656      3655      3658      3681
      3657      3655      3658      3659      3657      3655      3658      3660
      3657      3655      3658      3681      3658      3660      3662      3663
      3658      3660      3662      3664      3658      3660      3662      3665
      3658      3660      3670      3668      3658      3660      3670      3671
      3658      3660      3670      3675      3658      3681      3678      3675
      3658      3681      3678      3679      3658      3681      3678      3680
      3658      3681      3683      3684      3658      3681      3683      3688
      3659      3658      3660      3661      3659      3658      3660      3662
      3659      3658      3660      3670      3659      3658      3681      3678
      3659      3658      3681      3682      3659      3658      3681      3683
      3660      3658      3681      3678      3660      3658      3681      3682
      3660      3658      3681      3683      3660      3662      3665      3666
      3660      3662      3665      3667      3660      3662      3665      3668
      3660      3670      3668      3665      3660      3670      3668      3669
      3660      3670      3668      3694      3660      3670      3671      3672
      3660      3670      3671      3673      3660      3670      3671      3674
      3660      3670      3675      3676      3660      3670      3675      3677
      3660      3670      3675      3678      3661      3660      3658      3681
      3661      3660      3662      3663      3661      3660      3662      3664
      3661      3660      3662      3665      3661      3660      3670      3668
      3661      3660      3670      3671      3661      3660      3670      3675
      3662      3660      3658      3681      3662      3660      3670      3668
      3662      3660      3670      3671      3662      3660      3670      3675
      3662      3665      3668      3669      3662      3665      3668      3670
      3662      3665      3668      3694      3663      3662      3660      3670
      3663      3662      3665      3666      3663      3662      3665      3667
      3663      3662      3665      3668      3664      3662      3660      3670
      3664      3662      3665      3666      3664      3662      3665      3667
      3664      3662      3665      3668      3665      3662      3660      3670
      3665      3668      3670      3671      3665      3668      3670      3675
      3665      3668      3694      3695      3665      3668      3694      3696
      3665      3668      3694      3700      3666      3665      3668      3669
      3666      3665      3668      3670      3666      3665      3668      3694
      3667      3665      3668      3669      3667      3665      3668      3670
      3667      3665      3668      3694      3668      3670      3671      3672
      3668      3670      3671      3673      3668      3670      3671      3674
      3668      3670      3675      3676      3668      3670      3675      3677
      3668      3670      3675      3678      3668      3694      3696      3697
      3668      3694      3696      3698      3668      3694      3696      3699
      3668      3694      3700      3701      3668      3694      3700      3702
      3668      3694      3700      3703      3669      3668      3670      3671
      3669      3668      3670      3675      3669      3668      3694      3695
      3669      3668      3694      3696      3669      3668      3694      3700
      3670      3660      3658      3681      3670      3668      3694      3695
      3670      3668      3694      3696      3670      3668      3694      3700
      3670      3675      3678      3679      3670      3675      3678      3680
      3670      3675      3678      3681      3671      3670      3668      3694
      3671      3670      3675      3676      3671      3670      3675      3677
      3671      3670      3675      3678      3672      3671      3670      3675
      3673      3671      3670      3675      3674      3671      3670      3675
      3675      3670      3668      3694      3675      3678      3681      3682
      3675      3678      3681      3683      3676      3675      3678      3679
      3676      3675      3678      3680      3676      3675      3678      3681
      3677      3675      3678      3679      3677      3675      3678      3680
      3677      3675      3678      3681      3678      3681      3683      3684
      3678      3681      3683      3688      3679      3678      3681      3682
      3679      3678      3681      3683      3680      3678      3681      3682
      3680      3678      3681      3683      3681      3683      3684      3685
      3681      3683      3684      3686      3681      3683      3684      3687
      3681      3683      3688      3689      3681      3683      3688      3690
      3681      3683      3688      3691      3682      3681      3683      3684
      3682      3681      3683      3688      3683      3688      3691      3692
      3683      3688      3691      3693      3684      3683      3688      3689
      3684      3683      3688      3690      3684      3683      3688      3691
      3685      3684      3683      3688      3686      3684      3683      3688
      3687      3684      3683      3688      3689      3688      3691      3692
      3689      3688      3691      3693      3690      3688      3691      3692
      3690      3688      3691      3693      3694      3700      3703      3704
      3694      3700      3703      3705      3694      3700      3703      3706
      3695      3694      3696      3697      3695      3694      3696      3698
      3695      3694      3696      3699      3695      3694      3700      3701
      3695      3694      3700      3702      3695      3694      3700      3703
      3696      3694      3700      3701      3696      3694      3700      3702
      3696      3694      3700      3703      3697      3696      3694      3700
      3698      3696      3694      3700      3699      3696      3694      3700
      3700      3703      3706      3707      3700      3703      3706      3708
      3700      3703      3706      3709      3701      3700      3703      3704
      3701      3700      3703      3705      3701      3700      3703      3706
      3702      3700      3703      3704      3702      3700      3703      3705
      3702      3700      3703      3706      3703      3706      3709      3710
      3703      3706      3709      3711      3703      3706      3709      3715
      3704      3703      3706      3707      3704      3703      3706      3708
      3704      3703      3706      3709      3705      3703      3706      3707
      3705      3703      3706      3708      3705      3703      3706      3709
      3706      3709      3711      3712      3706      3709      3711      3713
      3706      3709      3711      3714      3706      3709      3715      3716
      3706      3709      3715      3717      3706      3709      3715      3718
      3707      3706      3709      3710      3707      3706      3709      3711
      3707      3706      3709      3715      3708      3706      3709      3710
      3708      3706      3709      3711      3708      3706      3709      3715
      3710      3709      3711      3712      3710      3709      3711      3713
      3710      3709      3711      3714      3710      3709      3715      3716
      3710      3709      3715      3717      3710      3709      3715      3718
      3711      3709      3715      3716      3711      3709      3715      3717
      3711      3709      3715      3718      3712      3711      3709      3715
      3713      3711      3709      3715      3714      3711      3709      3715
      3719      3723      3726      3727      3719      3723      3726      3728
      3719      3723      3726      3732      3720      3719      3723      3724
      3720      3719      3723      3725      3720      3719      3723      3726
      3721      3719      3723      3724      3721      3719      3723      3725
      3721      3719      3723      3726      3722      3719      3723      3724
      3722      3719      3723      3725      3722      3719      3723      3726
      3723      3726      3732      3729      3724      3723      3726      3727
      3724      3723      3726      3728      3724      3723      3726      3732
      3725      3723      3726      3727      3725      3723      3726      3728
      3725      3723      3726      3732      3726      3732      3729      3730
      3726      3732      3729      3731      3726      3732      3729      3733
      3727      3726      3732      3729      3728      3726      3732      3729
      3729      3733      3734      3735      3729      3733      3734      3736
      3729      3733      3734      3737      3730      3729      3733      3734
      3731      3729      3733      3734      3732      3729      3733      3734
      3733      3734      3737      3738      3733      3734      3737      3739
      3733      3734      3737      3745      3734      3737      3739      3740
      3734      3737      3745      3746      3734      3737      3745      3747
      3734      3737      3745      3748      3735      3734      3737      3738
      3735      3734      3737      3739      3735      3734      3737      3745
      3736      3734      3737      3738      3736      3734      3737      3739
      3736      3734      3737      3745      3737      3739      3740      3741
      3737      3739      3740      3742      3737      3745      3748      3749
      3738      3737      3739      3740      3738      3737      3745      3746
      3738      3737      3745      3747      3738      3737      3745      3748
      3739      3737      3745      3746      3739      3737      3745      3747
      3739      3737      3745      3748      3739      3740      3742      3743
      3739      3740      3742      3744      3739      3740      3742      3754
      3740      3739      3737      3745      3740      3742      3754      3755
      3740      3742      3754      3756      3740      3742      3754      3757
      3741      3740      3742      3743      3741      3740      3742      3744
      3741      3740      3742      3754      3742      3754      3757      3758
      3742      3754      3757      3759      3742      3754      3757      3760
      3743      3742      3754      3755      3743      3742      3754      3756
      3743      3742      3754      3757      3744      3742      3754      3755
      3744      3742      3754      3756      3744      3742      3754      3757
      3745      3748      3749      3750      3745      3748      3749      3751
      3746      3745      3748      3749      3747      3745      3748      3749
      3748      3749      3751      3752      3748      3749      3751      3753
      3748      3749      3751      3801      3749      3751      3801      3802
      3749      3751      3801      3803      3749      3751      3801      3804
      3750      3749      3751      3752      3750      3749      3751      3753
      3750      3749      3751      3801      3751      3801      3804      3805
      3751      3801      3804      3806      3751      3801      3804      3807
      3752      3751      3801      3802      3752      3751      3801      3803
      3752      3751      3801      3804      3753      3751      3801      3802
      3753      3751      3801      3803      3753      3751      3801      3804
      3754      3757      3760      3761      3754      3757      3760      3762
      3755      3754      3757      3758      3755      3754      3757      3759
      3755      3754      3757      3760      3756      3754      3757      3758
      3756      3754      3757      3759      3756      3754      3757      3760
      3757      3760      3762      3763      3757      3760      3762      3764
      3758      3757      3760      3761      3758      3757      3760      3762
      3759      3757      3760      3761      3759      3757      3760      3762
      3760      3762      3764      3765      3760      3762      3764      3766
      3760      3762      3764      3767      3761      3760      3762      3763
      3761      3760      3762      3764      3762      3764      3767      3768
      3762      3764      3767      3769      3763      3762      3764      3765
      3763      3762      3764      3766      3763      3762      3764      3767
      3764      3767      3769      3770      3764      3767      3769      3771
      3765      3764      3767      3768      3765      3764      3767      3769
      3766      3764      3767      3768      3766      3764      3767      3769
      3767      3769      3771      3772      3767      3769      3771      3773
      3767      3769      3771      3774      3768      3767      3769      3770
      3768      3767      3769      3771      3769      3771      3774      3775
      3769      3771      3774      3776      3770      3769      3771      3772
      3770      3769      3771      3773      3770      3769      3771      3774
      3771      3774      3776      3777      3771      3774      3776      3778
      3772      3771      3774      3775      3772      3771      3774      3776
      3773      3771      3774      3775      3773      3771      3774      3776
      3774      3776      3778      3779      3774      3776      3778      3780
      3774      3776      3778      3781      3775      3774      3776      3777
      3775      3774      3776      3778      3776      3778      3781      3782
      3776      3778      3781      3783      3777      3776      3778      3779
      3777      3776      3778      3780      3777      3776      3778      3781
      3778      3781      3783      3784      3778      3781      3783      3785
      3779      3778      3781      3782      3779      3778      3781      3783
      3780      3778      3781      3782      3780      3778      3781      3783
      3781      3783      3785      3786      3781      3783      3785      3787
      3781      3783      3785      3788      3782      3781      3783      3784
      3782      3781      3783      3785      3783      3785      3788      3789
      3783      3785      3788      3790      3783      3785      3788      3791
      3784      3783      3785      3786      3784      3783      3785      3787
      3784      3783      3785      3788      3785      3788      3791      3792
      3785      3788      3791      3793      3785      3788      3791      3794
      3786      3785      3788      3789      3786      3785      3788      3790
      3786      3785      3788      3791      3787      3785      3788      3789
      3787      3785      3788      3790      3787      3785      3788      3791
      3788      3791      3794      3795      3788      3791      3794      3796
      3788      3791      3794      3797      3789      3788      3791      3792
      3789      3788      3791      3793      3789      3788      3791      3794
      3790      3788      3791      3792      3790      3788      3791      3793
      3790      3788      3791      3794      3791      3794      3797      3798
      3791      3794      3797      3799      3791      3794      3797      3800
      3792      3791      3794      3795      3792      3791      3794      3796
      3792      3791      3794      3797      3793      3791      3794      3795
      3793      3791      3794      3796      3793      3791      3794      3797
      3795      3794      3797      3798      3795      3794      3797      3799
      3795      3794      3797      3800      3796      3794      3797      3798
      3796      3794      3797      3799      3796      3794      3797      3800
      3801      3804      3807      3808      3801      3804      3807      3809
      3801      3804      3807      3810      3802      3801      3804      3805
      3802      3801      3804      3806      3802      3801      3804      3807
      3803      3801      3804      3805      3803      3801      3804      3806
      3803      3801      3804      3807      3804      3807      3810      3811
      3804      3807      3810      3812      3804      3807      3810      3813
      3805      3804      3807      3808      3805      3804      3807      3809
      3805      3804      3807      3810      3806      3804      3807      3808
      3806      3804      3807      3809      3806      3804      3807      3810
      3807      3810      3813      3814      3807      3810      3813      3815
      3807      3810      3813      3816      3808      3807      3810      3811
      3808      3807      3810      3812      3808      3807      3810      3813
      3809      3807      3810      3811      3809      3807      3810      3812
      3809      3807      3810      3813      3810      3813      3816      3817
      3810      3813      3816      3818      3810      3813      3816      3819
      3811      3810      3813      3814      3811      3810      3813      3815
      3811      3810      3813      3816      3812      3810      3813      3814
      3812      3810      3813      3815      3812      3810      3813      3816
      3813      3816      3819      3820      3813      3816      3819      3821
      3813      3816      3819      3822      3814      3813      3816      3817
      3814      3813      3816      3818      3814      3813      3816      3819
      3815      3813      3816      3817      3815      3813      3816      3818
      3815      3813      3816      3819      3816      3819      3822      3823
      3816      3819      3822      3824      3816      3819      3822      3825
      3817      3816      3819      3820      3817      3816      3819      3821
      3817      3816      3819      3822      3818      3816      3819      3820
      3818      3816      3819      3821      3818      3816      3819      3822
      3819      3822      3825      3826      3819      3822      3825      3827
      3819      3822      3825      3828      3820      3819      3822      3823
      3820      3819      3822      3824      3820      3819      3822      3825
      3821      3819      3822      3823      3821      3819      3822      3824
      3821      3819      3822      3825      3822      3825      3828      3829
      3822      3825      3828      3830      3822      3825      3828      3831
      3823      3822      3825      3826      3823      3822      3825      3827
      3823      3822      3825      3828      3824      3822      3825      3826
      3824      3822      3825      3827      3824      3822      3825      3828
      3825      3828      3831      3832      3825      3828      3831      3833
      3825      3828      3831      3834      3826      3825      3828      3829
      3826      3825      3828      3830      3826      3825      3828      3831
      3827      3825      3828      3829      3827      3825      3828      3830
      3827      3825      3828      3831      3828      3831      3834      3835
      3828      3831      3834      3836      3828      3831      3834      3837
      3829      3828      3831      3832      3829      3828      3831      3833
      3829      3828      3831      3834      3830      3828      3831      3832
      3830      3828      3831      3833      3830      3828      3831      3834
      3831      3834      3837      3838      3831      3834      3837      3839
      3831      3834      3837      3840      3832      3831      3834      3835
      3832      3831      3834      3836      3832      3831      3834      3837
      3833      3831      3834      3835      3833      3831      3834      3836
      3833      3831      3834      3837      3834      3837      3840      3841
      3834      3837      3840      3842      3834      3837      3840      3843
      3835      3834      3837      3838      3835      3834      3837      3839
      3835      3834      3837      3840      3836      3834      3837      3838
      3836      3834      3837      3839      3836      3834      3837      3840
      3837      3840      3843      3844      3837      3840      3843      3845
      3837      3840      3843      3846      3838      3837      3840      3841
      3838      3837      3840      3842      3838      3837      3840      3843
      3839      3837      3840      3841      3839      3837      3840      3842
      3839      3837      3840      3843      3840      3843      3846      3847
      3840      3843      3846      3848      3840      3843      3846      3849
      3841      3840      3843      3844      3841      3840      3843      3845
      3841      3840      3843      3846      3842      3840      3843      3844
      3842      3840      3843      3845      3842      3840      3843      3846
      3844      3843      3846      3847      3844      3843      3846      3848
      3844      3843      3846      3849      3845      3843      3846      3847
      3845      3843      3846      3848      3845      3843      3846      3849
      3850      3854      3856      3857      3850      3854      3856      3858
      3850      3854      3859      3860      3850      3854      3859      3861
      3850      3854      3859      3865      3851      3850      3854      3855
      3851      3850      3854      3856      3851      3850      3854      3859
      3852      3850      3854      3855      3852      3850      3854      3856
      3852      3850      3854      3859      3853      3850      3854      3855
      3853      3850      3854      3856      3853      3850      3854      3859
      3854      3859      3865      3862      3855      3854      3856      3857
      3855      3854      3856      3858      3855      3854      3859      3860
      3855      3854      3859      3861      3855      3854      3859      3865
      3856      3854      3859      3860      3856      3854      3859      3861
      3856      3854      3859      3865      3857      3856      3854      3859
      3858      3856      3854      3859      3859      3865      3862      3863
      3859      3865      3862      3864      3859      3865      3862      3866
      3860      3859      3865      3862      3861      3859      3865      3862
      3862      3866      3867      3868      3862      3866      3867      3869
      3862      3866      3867      3870      3863      3862      3866      3867
      3864      3862      3866      3867      3865      3862      3866      3867
      3866      3867      3870      3871      3866      3867      3870      3872
      3866      3867      3870      3878      3867      3870      3872      3873
      3867      3870      3878      3879      3867      3870      3878      3880
      3867      3870      3878      3881      3868      3867      3870      3871
      3868      3867      3870      3872      3868      3867      3870      3878
      3869      3867      3870      3871      3869      3867      3870      3872
      3869      3867      3870      3878      3870      3872      3873      3874
      3870      3872      3873      3875      3870      3878      3881      3882
      3871      3870      3872      3873      3871      3870      3878      3879
      3871      3870      3878      3880      3871      3870      3878      3881
      3872      3870      3878      3879      3872      3870      3878      3880
      3872      3870      3878      3881      3872      3873      3875      3876
      3872      3873      3875      3877      3872      3873      3875      3887
      3873      3872      3870      3878      3873      3875      3887      3888
      3873      3875      3887      3889      3873      3875      3887      3890
      3874      3873      3875      3876      3874      3873      3875      3877
      3874      3873      3875      3887      3875      3887      3890      3891
      3875      3887      3890      3892      3875      3887      3890      3893
      3876      3875      3887      3888      3876      3875      3887      3889
      3876      3875      3887      3890      3877      3875      3887      3888
      3877      3875      3887      3889      3877      3875      3887      3890
      3878      3881      3882      3883      3878      3881      3882      3884
      3879      3878      3881      3882      3880      3878      3881      3882
      3881      3882      3884      3885      3881      3882      3884      3886
      3881      3882      3884      3934      3882      3884      3934      3935
      3882      3884      3934      3936      3882      3884      3934      3937
      3883      3882      3884      3885      3883      3882      3884      3886
      3883      3882      3884      3934      3884      3934      3937      3938
      3884      3934      3937      3939      3884      3934      3937      3940
      3885      3884      3934      3935      3885      3884      3934      3936
      3885      3884      3934      3937      3886      3884      3934      3935
      3886      3884      3934      3936      3886      3884      3934      3937
      3887      3890      3893      3894      3887      3890      3893      3895
      3888      3887      3890      3891      3888      3887      3890      3892
      3888      3887      3890      3893      3889      3887      3890      3891
      3889      3887      3890      3892      3889      3887      3890      3893
      3890      3893      3895      3896      3890      3893      3895      3897
      3891      3890      3893      3894      3891      3890      3893      3895
      3892      3890      3893      3894      3892      3890      3893      3895
      3893      3895      3897      3898      3893      3895      3897      3899
      3893      3895      3897      3900      3894      3893      3895      3896
      3894      3893      3895      3897      3895      3897      3900      3901
      3895      3897      3900      3902      3896      3895      3897      3898
      3896      3895      3897      3899      3896      3895      3897      3900
      3897      3900      3902      3903      3897      3900      3902      3904
      3898      3897      3900      3901      3898      3897      3900      3902
      3899      3897      3900      3901      3899      3897      3900      3902
      3900      3902      3904      3905      3900      3902      3904      3906
      3900      3902      3904      3907      3901      3900      3902      3903
      3901      3900      3902      3904      3902      3904      3907      3908
      3902      3904      3907      3909      3903      3902      3904      3905
      3903      3902      3904      3906      3903      3902      3904      3907
      3904      3907      3909      3910      3904      3907      3909      3911
      3905      3904      3907      3908      3905      3904      3907      3909
      3906      3904      3907      3908      3906      3904      3907      3909
      3907      3909      3911      3912      3907      3909      3911      3913
      3907      3909      3911      3914      3908      3907      3909      3910
      3908      3907      3909      3911      3909      3911      3914      3915
      3909      3911      3914      3916      3910      3909      3911      3912
      3910      3909      3911      3913      3910      3909      3911      3914
      3911      3914      3916      3917      3911      3914      3916      3918
      3912      3911      3914      3915      3912      3911      3914      3916
      3913      3911      3914      3915      3913      3911      3914      3916
      3914      3916      3918      3919      3914      3916      3918      3920
      3914      3916      3918      3921      3915      3914      3916      3917
      3915      3914      3916      3918      3916      3918      3921      3922
      3916      3918      3921      3923      3916      3918      3921      3924
      3917      3916      3918      3919      3917      3916      3918      3920
      3917      3916      3918      3921      3918      3921      3924      3925
      3918      3921      3924      3926      3918      3921      3924      3927
      3919      3918      3921      3922      3919      3918      3921      3923
      3919      3918      3921      3924      3920      3918      3921      3922
      3920      3918      3921      3923      3920      3918      3921      3924
      3921      3924      3927      3928      3921      3924      3927      3929
      3921      3924      3927      3930      3922      3921      3924      3925
      3922      3921      3924      3926      3922      3921      3924      3927
      3923      3921      3924      3925      3923      3921      3924      3926
      3923      3921      3924      3927      3924      3927      3930      3931
      3924      3927      3930      3932      3924      3927      3930      3933
      3925      3924      3927      3928      3925      3924      3927      3929
      3925      3924      3927      3930      3926      3924      3927      3928
      3926      3924      3927      3929      3926      3924      3927      3930
      3928      3927      3930      3931      3928      3927      3930      3932
      3928      3927      3930      3933      3929      3927      3930      3931
      3929      3927      3930      3932      3929      3927      3930      3933
      3934      3937      3940      3941      3934      3937      3940      3942
      3934      3937      3940      3943      3935      3934      3937      3938
      3935      3934      3937      3939      3935      3934      3937      3940
      3936      3934      3937      3938      3936      3934      3937      3939
      3936      3934      3937      3940      3937      3940      3943      3944
      3937      3940      3943      3945      3937      3940      3943      3946
      3938      3937      3940      3941      3938      3937      3940      3942
      3938      3937      3940      3943      3939      3937      3940      3941
      3939      3937      3940      3942      3939      3937      3940      3943
      3940      3943      3946      3947      3940      3943      3946      3948
      3940      3943      3946      3949      3941      3940      3943      3944
      3941      3940      3943      3945      3941      3940      3943      3946
      3942      3940      3943      3944      3942      3940      3943      3945
      3942      3940      3943      3946      3943      3946      3949      3950
      3943      3946      3949      3951      3943      3946      3949      3952
      3944      3943      3946      3947      3944      3943      3946      3948
      3944      3943      3946      3949      3945      3943      3946      3947
      3945      3943      3946      3948      3945      3943      3946      3949
      3946      3949      3952      3953      3946      3949      3952      3954
      3946      3949      3952      3955      3947      3946      3949      3950
      3947      3946      3949      3951      3947      3946      3949      3952
      3948      3946      3949      3950      3948      3946      3949      3951
      3948      3946      3949      3952      3949      3952      3955      3956
      3949      3952      3955      3957      3949      3952      3955      3958
      3950      3949      3952      3953      3950      3949      3952      3954
      3950      3949      3952      3955      3951      3949      3952      3953
      3951      3949      3952      3954      3951      3949      3952      3955
      3952      3955      3958      3959      3952      3955      3958      3960
      3952      3955      3958      3961      3953      3952      3955      3956
      3953      3952      3955      3957      3953      3952      3955      3958
      3954      3952      3955      3956      3954      3952      3955      3957
      3954      3952      3955      3958      3955      3958      3961      3962
      3955      3958      3961      3963      3955      3958      3961      3964
      3956      3955      3958      3959      3956      3955      3958      3960
      3956      3955      3958      3961      3957      3955      3958      3959
      3957      3955      3958      3960      3957      3955      3958      3961
      3958      3961      3964      3965      3958      3961      3964      3966
      3958      3961      3964      3967      3959      3958      3961      3962
      3959      3958      3961      3963      3959      3958      3961      3964
      3960      3958      3961      3962      3960      3958      3961      3963
      3960      3958      3961      3964      3961      3964      3967      3968
      3961      3964      3967      3969      3961      3964      3967      3970
      3962      3961      3964      3965      3962      3961      3964      3966
      3962      3961      3964      3967      3963      3961      3964      3965
      3963      3961      3964      3966      3963      3961      3964      3967
      3964      3967      3970      3971      3964      3967      3970      3972
      3964      3967      3970      3973      3965      3964      3967      3968
      3965      3964      3967      3969      3965      3964      3967      3970
      3966      3964      3967      3968      3966      3964      3967      3969
      3966      3964      3967      3970      3967      3970      3973      3974
      3967      3970      3973      3975      3967      3970      3973      3976
      3968      3967      3970      3971      3968      3967      3970      3972
      3968      3967      3970      3973      3969      3967      3970      3971
      3969      3967      3970      3972      3969      3967      3970      3973
      3970      3973      3976      3977      3970      3973      3976      3978
      3970      3973      3976      3979      3971      3970      3973      3974
      3971      3970      3973      3975      3971      3970      3973      3976
      3972      3970      3973      3974      3972      3970      3973      3975
      3972      3970      3973      3976      3973      3976      3979      3980
      3973      3976      3979      3981      3973      3976      3979      3982
      3974      3973      3976      3977      3974      3973      3976      3978
      3974      3973      3976      3979      3975      3973      3976      3977
      3975      3973      3976      3978      3975      3973      3976      3979
      3977      3976      3979      3980      3977      3976      3979      3981
      3977      3976      3979      3982      3978      3976      3979      3980
      3978      3976      3979      3981      3978      3976      3979      3982
      3983      3984      3999      4000      3983      3984      3999      4001
      3983      3984      3999      4005      3984      3983      3987      3988
      3984      3983      3987      3989      3984      3983      3987      3990
      3984      3983      3991      3992      3984      3983      3991      3993
      3984      3983      3991      3994      3984      3983      3995      3996
      3984      3983      3995      3997      3984      3983      3995      3998
      3984      3999      4005      4002      3985      3984      3983      3987
      3985      3984      3983      3991      3985      3984      3983      3995
      3985      3984      3999      4000      3985      3984      3999      4001
      3985      3984      3999      4005      3986      3984      3983      3987
      3986      3984      3983      3991      3986      3984      3983      3995
      3986      3984      3999      4000      3986      3984      3999      4001
      3986      3984      3999      4005      3987      3983      3984      3999
      3987      3983      3991      3992      3987      3983      3991      3993
      3987      3983      3991      3994      3987      3983      3995      3996
      3987      3983      3995      3997      3987      3983      3995      3998
      3988      3987      3983      3991      3988      3987      3983      3995
      3989      3987      3983      3991      3989      3987      3983      3995
      3990      3987      3983      3991      3990      3987      3983      3995
      3991      3983      3984      3999      3991      3983      3995      3996
      3991      3983      3995      3997      3991      3983      3995      3998
      3992      3991      3983      3995      3993      3991      3983      3995
      3994      3991      3983      3995      3995      3983      3984      3999
      3999      4005      4002      4003      3999      4005      4002      4004
      3999      4005      4002      4006      4000      3999      4005      4002
      4001      3999      4005      4002      4002      4006      4007      4008
      4002      4006      4007      4009      4002      4006      4007      4010
      4003      4002      4006      4007      4004      4002      4006      4007
      4005      4002      4006      4007      4006      4007      4010      4011
      4006      4007      4010      4012      4006      4007      4010      4018
      4007      4010      4012      4013      4007      4010      4018      4019
      4007      4010      4018      4020      4007      4010      4018      4021
      4008      4007      4010      4011      4008      4007      4010      4012
      4008      4007      4010      4018      4009      4007      4010      4011
      4009      4007      4010      4012      4009      4007      4010      4018
      4010      4012      4013      4014      4010      4012      4013      4015
      4010      4018      4021      4022      4011      4010      4012      4013
      4011      4010      4018      4019      4011      4010      4018      4020
      4011      4010      4018      4021      4012      4010      4018      4019
      4012      4010      4018      4020      4012      4010      4018      4021
      4012      4013      4015      4016      4012      4013      4015      4017
      4012      4013      4015      4027      4013      4012      4010      4018
      4013      4015      4027      4028      4013      4015      4027      4029
      4013      4015      4027      4030      4014      4013      4015      4016
      4014      4013      4015      4017      4014      4013      4015      4027
      4015      4027      4030      4031      4015      4027      4030      4032
      4015      4027      4030      4033      4016      4015      4027      4028
      4016      4015      4027      4029      4016      4015      4027      4030
      4017      4015      4027      4028      4017      4015      4027      4029
      4017      4015      4027      4030      4018      4021      4022      4023
      4018      4021      4022      4024      4019      4018      4021      4022
      4020      4018      4021      4022      4021      4022      4024      4025
      4021      4022      4024      4026      4021      4022      4024      4074
      4022      4024      4074      4075      4022      4024      4074      4076
      4022      4024      4074      4077      4023      4022      4024      4025
      4023      4022      4024      4026      4023      4022      4024      4074
      4024      4074      4077      4078      4024      4074      4077      4079
      4024      4074      4077      4080      4025      4024      4074      4075
      4025      4024      4074      4076      4025      4024      4074      4077
      4026      4024      4074      4075      4026      4024      4074      4076
      4026      4024      4074      4077      4027      4030      4033      4034
      4027      4030      4033      4035      4028      4027      4030      4031
      4028      4027      4030      4032      4028      4027      4030      4033
      4029      4027      4030      4031      4029      4027      4030      4032
      4029      4027      4030      4033      4030      4033      4035      4036
      4030      4033      4035      4037      4031      4030      4033      4034
      4031      4030      4033      4035      4032      4030      4033      4034
      4032      4030      4033      4035      4033      4035      4037      4038
      4033      4035      4037      4039      4033      4035      4037      4040
      4034      4033      4035      4036      4034      4033      4035      4037
      4035      4037      4040      4041      4035      4037      4040      4042
      4036      4035      4037      4038      4036      4035      4037      4039
      4036      4035      4037      4040      4037      4040      4042      4043
      4037      4040      4042      4044      4038      4037      4040      4041
      4038      4037      4040      4042      4039      4037      4040      4041
      4039      4037      4040      4042      4040      4042      4044      4045
      4040      4042      4044      4046      4040      4042      4044      4047
      4041      4040      4042      4043      4041      4040      4042      4044
      4042      4044      4047      4048      4042      4044      4047      4049
      4043      4042      4044      4045      4043      4042      4044      4046
      4043      4042      4044      4047      4044      4047      4049      4050
      4044      4047      4049      4051      4045      4044      4047      4048
      4045      4044      4047      4049      4046      4044      4047      4048
      4046      4044      4047      4049      4047      4049      4051      4052
      4047      4049      4051      4053      4047      4049      4051      4054
      4048      4047      4049      4050      4048      4047      4049      4051
      4049      4051      4054      4055      4049      4051      4054      4056
      4050      4049      4051      4052      4050      4049      4051      4053
      4050      4049      4051      4054      4051      4054      4056      4057
      4051      4054      4056      4058      4052      4051      4054      4055
      4052      4051      4054      4056      4053      4051      4054      4055
      4053      4051      4054      4056      4054      4056      4058      4059
      4054      4056      4058      4060      4054      4056      4058      4061
      4055      4054      4056      4057      4055      4054      4056      4058
      4056      4058      4061      4062      4056      4058      4061      4063
      4056      4058      4061      4064      4057      4056      4058      4059
      4057      4056      4058      4060      4057      4056      4058      4061
      4058      4061      4064      4065      4058      4061      4064      4066
      4058      4061      4064      4067      4059      4058      4061      4062
      4059      4058      4061      4063      4059      4058      4061      4064
      4060      4058      4061      4062      4060      4058      4061      4063
      4060      4058      4061      4064      4061      4064      4067      4068
      4061      4064      4067      4069      4061      4064      4067      4070
      4062      4061      4064      4065      4062      4061      4064      4066
      4062      4061      4064      4067      4063      4061      4064      4065
      4063      4061      4064      4066      4063      4061      4064      4067
      4064      4067      4070      4071      4064      4067      4070      4072
      4064      4067      4070      4073      4065      4064      4067      4068
      4065      4064      4067      4069      4065      4064      4067      4070
      4066      4064      4067      4068      4066      4064      4067      4069
      4066      4064      4067      4070      4068      4067      4070      4071
      4068      4067      4070      4072      4068      4067      4070      4073
      4069      4067      4070      4071      4069      4067      4070      4072
      4069      4067      4070      4073      4074      4077      4080      4081
      4074      4077      4080      4082      4074      4077      4080      4083
      4075      4074      4077      4078      4075      4074      4077      4079
      4075      4074      4077      4080      4076      4074      4077      4078
      4076      4074      4077      4079      4076      4074      4077      4080
      4077      4080      4083      4084      4077      4080      4083      4085
      4077      4080      4083      4086      4078      4077      4080      4081
      4078      4077      4080      4082      4078      4077      4080      4083
      4079      4077      4080      4081      4079      4077      4080      4082
      4079      4077      4080      4083      4080      4083      4086      4087
      4080      4083      4086      4088      4080      4083      4086      4089
      4081      4080      4083      4084      4081      4080      4083      4085
      4081      4080      4083      4086      4082      4080      4083      4084
      4082      4080      4083      4085      4082      4080      4083      4086
      4083      4086      4089      4090      4083      4086      4089      4091
      4083      4086      4089      4092      4084      4083      4086      4087
      4084      4083      4086      4088      4084      4083      4086      4089
      4085      4083      4086      4087      4085      4083      4086      4088
      4085      4083      4086      4089      4086      4089      4092      4093
      4086      4089      4092      4094      4086      4089      4092      4095
      4087      4086      4089      4090      4087      4086      4089      4091
      4087      4086      4089      4092      4088      4086      4089      4090
      4088      4086      4089      4091      4088      4086      4089      4092
      4089      4092      4095      4096      4089      4092      4095      4097
      4089      4092      4095      4098      4090      4089      4092      4093
      4090      4089      4092      4094      4090      4089      4092      4095
      4091      4089      4092      4093      4091      4089      4092      4094
      4091      4089      4092      4095      4092      4095      4098      4099
      4092      4095      4098      4100      4092      4095      4098      4101
      4093      4092      4095      4096      4093      4092      4095      4097
      4093      4092      4095      4098      4094      4092      4095      4096
      4094      4092      4095      4097      4094      4092      4095      4098
      4095      4098      4101      4102      4095      4098      4101      4103
      4095      4098      4101      4104      4096      4095      4098      4099
      4096      4095      4098      4100      4096      4095      4098      4101
      4097      4095      4098      4099      4097      4095      4098      4100
      4097      4095      4098      4101      4098      4101      4104      4105
      4098      4101      4104      4106      4098      4101      4104      4107
      4099      4098      4101      4102      4099      4098      4101      4103
      4099      4098      4101      4104      4100      4098      4101      4102
      4100      4098      4101      4103      4100      4098      4101      4104
      4101      4104      4107      4108      4101      4104      4107      4109
      4101      4104      4107      4110      4102      4101      4104      4105
      4102      4101      4104      4106      4102      4101      4104      4107
      4103      4101      4104      4105      4103      4101      4104      4106
      4103      4101      4104      4107      4104      4107      4110      4111
      4104      4107      4110      4112      4104      4107      4110      4113
      4105      4104      4107      4108      4105      4104      4107      4109
      4105      4104      4107      4110      4106      4104      4107      4108
      4106      4104      4107      4109      4106      4104      4107      4110
      4107      4110      4113      4114      4107      4110      4113      4115
      4107      4110      4113      4116      4108      4107      4110      4111
      4108      4107      4110      4112      4108      4107      4110      4113
      4109      4107      4110      4111      4109      4107      4110      4112
      4109      4107      4110      4113      4110      4113      4116      4117
      4110      4113      4116      4118      4110      4113      4116      4119
      4111      4110      4113      4114      4111      4110      4113      4115
      4111      4110      4113      4116      4112      4110      4113      4114
      4112      4110      4113      4115      4112      4110      4113      4116
      4113      4116      4119      4120      4113      4116      4119      4121
      4113      4116      4119      4122      4114      4113      4116      4117
      4114      4113      4116      4118      4114      4113      4116      4119
      4115      4113      4116      4117      4115      4113      4116      4118
      4115      4113      4116      4119      4117      4116      4119      4120
      4117      4116      4119      4121      4117      4116      4119      4122
      4118      4116      4119      4120      4118      4116      4119      4121
      4118      4116      4119      4122      4123      4124      4139      4140
      4123      4124      4139      4141      4123      4124      4139      4145
      4124      4123      4127      4128      4124      4123      4127      4129
      4124      4123      4127      4130      4124      4123      4131      4132
      4124      4123      4131      4133      4124      4123      4131      4134
      4124      4123      4135      4136      4124      4123      4135      4137
      4124      4123      4135      4138      4124      4139      4145      4142
      4125      4124      4123      4127      4125      4124      4123      4131
      4125      4124      4123      4135      4125      4124      4139      4140
      4125      4124      4139      4141      4125      4124      4139      4145
      4126      4124      4123      4127      4126      4124      4123      4131
      4126      4124      4123      4135      4126      4124      4139      4140
      4126      4124      4139      4141      4126      4124      4139      4145
      4127      4123      4124      4139      4127      4123      4131      4132
      4127      4123      4131      4133      4127      4123      4131      4134
      4127      4123      4135      4136      4127      4123      4135      4137
      4127      4123      4135      4138      4128      4127      4123      4131
      4128      4127      4123      4135      4129      4127      4123      4131
      4129      4127      4123      4135      4130      4127      4123      4131
      4130      4127      4123      4135      4131      4123      4124      4139
      4131      4123      4135      4136      4131      4123      4135      4137
      4131      4123      4135      4138      4132      4131      4123      4135
      4133      4131      4123      4135      4134      4131      4123      4135
      4135      4123      4124      4139      4139      4145      4142      4143
      4139      4145      4142      4144      4139      4145      4142      4146
      4140      4139      4145      4142      4141      4139      4145      4142
      4142      4146      4147      4148      4142      4146      4147      4149
      4142      4146      4147      4150      4143      4142      4146      4147
      4144      4142      4146      4147      4145      4142      4146      4147
      4146      4147      4150      4151      4146      4147      4150      4152
      4146      4147      4150      4158      4147      4150      4152      4153
      4147      4150      4158      4159      4147      4150      4158      4160
      4147      4150      4158      4161      4148      4147      4150      4151
      4148      4147      4150      4152      4148      4147      4150      4158
      4149      4147      4150      4151      4149      4147      4150      4152
      4149      4147      4150      4158      4150      4152      4153      4154
      4150      4152      4153      4155      4150      4158      4161      4162
      4151      4150      4152      4153      4151      4150      4158      4159
      4151      4150      4158      4160      4151      4150      4158      4161
      4152      4150      4158      4159      4152      4150      4158      4160
      4152      4150      4158      4161      4152      4153      4155      4156
      4152      4153      4155      4157      4152      4153      4155      4167
      4153      4152      4150      4158      4153      4155      4167      4168
      4153      4155      4167      4169      4153      4155      4167      4170
      4154      4153      4155      4156      4154      4153      4155      4157
      4154      4153      4155      4167      4155      4167      4170      4171
      4155      4167      4170      4172      4155      4167      4170      4173
      4156      4155      4167      4168      4156      4155      4167      4169
      4156      4155      4167      4170      4157      4155      4167      4168
      4157      4155      4167      4169      4157      4155      4167      4170
      4158      4161      4162      4163      4158      4161      4162      4164
      4159      4158      4161      4162      4160      4158      4161      4162
      4161      4162      4164      4165      4161      4162      4164      4166
      4161      4162      4164      4214      4162      4164      4214      4215
      4162      4164      4214      4216      4162      4164      4214      4217
      4163      4162      4164      4165      4163      4162      4164      4166
      4163      4162      4164      4214      4164      4214      4217      4218
      4164      4214      4217      4219      4164      4214      4217      4220
      4165      4164      4214      4215      4165      4164      4214      4216
      4165      4164      4214      4217      4166      4164      4214      4215
      4166      4164      4214      4216      4166      4164      4214      4217
      4167      4170      4173      4174      4167      4170      4173      4175
      4167      4170      4173      4176      4168      4167      4170      4171
      4168      4167      4170      4172      4168      4167      4170      4173
      4169      4167      4170      4171      4169      4167      4170      4172
      4169      4167      4170      4173      4170      4173      4176      4177
      4170      4173      4176      4178      4170      4173      4176      4179
      4171      4170      4173      4174      4171      4170      4173      4175
      4171      4170      4173      4176      4172      4170      4173      4174
      4172      4170      4173      4175      4172      4170      4173      4176
      4173      4176      4179      4180      4173      4176      4179      4181
      4173      4176      4179      4182      4174      4173      4176      4177
      4174      4173      4176      4178      4174      4173      4176      4179
      4175      4173      4176      4177      4175      4173      4176      4178
      4175      4173      4176      4179      4176      4179      4182      4183
      4176      4179      4182      4184      4176      4179      4182      4185
      4177      4176      4179      4180      4177      4176      4179      4181
      4177      4176      4179      4182      4178      4176      4179      4180
      4178      4176      4179      4181      4178      4176      4179      4182
      4179      4182      4185      4186      4179      4182      4185      4187
      4180      4179      4182      4183      4180      4179      4182      4184
      4180      4179      4182      4185      4181      4179      4182      4183
      4181      4179      4182      4184      4181      4179      4182      4185
      4182      4185      4187      4188      4182      4185      4187      4189
      4183      4182      4185      4186      4183      4182      4185      4187
      4184      4182      4185      4186      4184      4182      4185      4187
      4185      4187      4189      4190      4185      4187      4189      4191
      4185      4187      4189      4192      4186      4185      4187      4188
      4186      4185      4187      4189      4187      4189      4192      4193
      4187      4189      4192      4194      4187      4189      4192      4195
      4188      4187      4189      4190      4188      4187      4189      4191
      4188      4187      4189      4192      4189      4192      4195      4196
      4189      4192      4195      4197      4189      4192      4195      4198
      4190      4189      4192      4193      4190      4189      4192      4194
      4190      4189      4192      4195      4191      4189      4192      4193
      4191      4189      4192      4194      4191      4189      4192      4195
      4192      4195      4198      4199      4192      4195      4198      4200
      4192      4195      4198      4201      4193      4192      4195      4196
      4193      4192      4195      4197      4193      4192      4195      4198
      4194      4192      4195      4196      4194      4192      4195      4197
      4194      4192      4195      4198      4195      4198      4201      4202
      4195      4198      4201      4203      4195      4198      4201      4204
      4196      4195      4198      4199      4196      4195      4198      4200
      4196      4195      4198      4201      4197      4195      4198      4199
      4197      4195      4198      4200      4197      4195      4198      4201
      4198      4201      4204      4205      4198      4201      4204      4206
      4198      4201      4204      4207      4199      4198      4201      4202
      4199      4198      4201      4203      4199      4198      4201      4204
      4200      4198      4201      4202      4200      4198      4201      4203
      4200      4198      4201      4204      4201      4204      4207      4208
      4201      4204      4207      4209      4201      4204      4207      4210
      4202      4201      4204      4205      4202      4201      4204      4206
      4202      4201      4204      4207      4203      4201      4204      4205
      4203      4201      4204      4206      4203      4201      4204      4207
      4204      4207      4210      4211      4204      4207      4210      4212
      4204      4207      4210      4213      4205      4204      4207      4208
      4205      4204      4207      4209      4205      4204      4207      4210
      4206      4204      4207      4208      4206      4204      4207      4209
      4206      4204      4207      4210      4208      4207      4210      4211
      4208      4207      4210      4212      4208      4207      4210      4213
      4209      4207      4210      4211      4209      4207      4210      4212
      4209      4207      4210      4213      4214      4217      4220      4221
      4214      4217      4220      4222      4214      4217      4220      4223
      4215      4214      4217      4218      4215      4214      4217      4219
      4215      4214      4217      4220      4216      4214      4217      4218
      4216      4214      4217      4219      4216      4214      4217      4220
      4217      4220      4223      4224      4217      4220      4223      4225
      4217      4220      4223      4226      4218      4217      4220      4221
      4218      4217      4220      4222      4218      4217      4220      4223
      4219      4217      4220      4221      4219      4217      4220      4222
      4219      4217      4220      4223      4220      4223      4226      4227
      4220      4223      4226      4228      4220      4223      4226      4229
      4221      4220      4223      4224      4221      4220      4223      4225
      4221      4220      4223      4226      4222      4220      4223      4224
      4222      4220      4223      4225      4222      4220      4223      4226
      4223      4226      4229      4230      4223      4226      4229      4231
      4223      4226      4229      4232      4224      4223      4226      4227
      4224      4223      4226      4228      4224      4223      4226      4229
      4225      4223      4226      4227      4225      4223      4226      4228
      4225      4223      4226      4229      4226      4229      4232      4233
      4226      4229      4232      4234      4226      4229      4232      4235
      4227      4226      4229      4230      4227      4226      4229      4231
      4227      4226      4229      4232      4228      4226      4229      4230
      4228      4226      4229      4231      4228      4226      4229      4232
      4229      4232      4235      4236      4229      4232      4235      4237
      4229      4232      4235      4238      4230      4229      4232      4233
      4230      4229      4232      4234      4230      4229      4232      4235
      4231      4229      4232      4233      4231      4229      4232      4234
      4231      4229      4232      4235      4232      4235      4238      4239
      4232      4235      4238      4240      4232      4235      4238      4241
      4233      4232      4235      4236      4233      4232      4235      4237
      4233      4232      4235      4238      4234      4232      4235      4236
      4234      4232      4235      4237      4234      4232      4235      4238
      4235      4238      4241      4242      4235      4238      4241      4243
      4235      4238      4241      4244      4236      4235      4238      4239
      4236      4235      4238      4240      4236      4235      4238      4241
      4237      4235      4238      4239      4237      4235      4238      4240
      4237      4235      4238      4241      4238      4241      4244      4245
      4238      4241      4244      4246      4238      4241      4244      4247
      4239      4238      4241      4242      4239      4238      4241      4243
      4239      4238      4241      4244      4240      4238      4241      4242
      4240      4238      4241      4243      4240      4238      4241      4244
      4241      4244      4247      4248      4241      4244      4247      4249
      4241      4244      4247      4250      4242      4241      4244      4245
      4242      4241      4244      4246      4242      4241      4244      4247
      4243      4241      4244      4245      4243      4241      4244      4246
      4243      4241      4244      4247      4244      4247      4250      4251
      4244      4247      4250      4252      4244      4247      4250      4253
      4245      4244      4247      4248      4245      4244      4247      4249
      4245      4244      4247      4250      4246      4244      4247      4248
      4246      4244      4247      4249      4246      4244      4247      4250
      4247      4250      4253      4254      4247      4250      4253      4255
      4247      4250      4253      4256      4248      4247      4250      4251
      4248      4247      4250      4252      4248      4247      4250      4253
      4249      4247      4250      4251      4249      4247      4250      4252
      4249      4247      4250      4253      4251      4250      4253      4254
      4251      4250      4253      4255      4251      4250      4253      4256
      4252      4250      4253      4254      4252      4250      4253      4255
      4252      4250      4253      4256      4257      4261      4264      4265
      4257      4261      4264      4266      4257      4261      4264      4270
      4258      4257      4261      4262      4258      4257      4261      4263
      4258      4257      4261      4264      4259      4257      4261      4262
      4259      4257      4261      4263      4259      4257      4261      4264
      4260      4257      4261      4262      4260      4257      4261      4263
      4260      4257      4261      4264      4261      4264      4270      4267
      4262      4261      4264      4265      4262      4261      4264      4266
      4262      4261      4264      4270      4263      4261      4264      4265
      4263      4261      4264      4266      4263      4261      4264      4270
      4264      4270      4267      4268      4264      4270      4267      4269
      4264      4270      4267      4271      4265      4264      4270      4267
      4266      4264      4270      4267      4267      4271      4272      4273
      4267      4271      4272      4274      4267      4271      4272      4275
      4268      4267      4271      4272      4269      4267      4271      4272
      4270      4267      4271      4272      4271      4272      4275      4276
      4271      4272      4275      4277      4271      4272      4275      4283
      4272      4275      4277      4278      4272      4275      4283      4284
      4272      4275      4283      4285      4272      4275      4283      4286
      4273      4272      4275      4276      4273      4272      4275      4277
      4273      4272      4275      4283      4274      4272      4275      4276
      4274      4272      4275      4277      4274      4272      4275      4283
      4275      4277      4278      4279      4275      4277      4278      4280
      4275      4283      4286      4287      4276      4275      4277      4278
      4276      4275      4283      4284      4276      4275      4283      4285
      4276      4275      4283      4286      4277      4275      4283      4284
      4277      4275      4283      4285      4277      4275      4283      4286
      4277      4278      4280      4281      4277      4278      4280      4282
      4277      4278      4280      4292      4278      4277      4275      4283
      4278      4280      4292      4293      4278      4280      4292      4294
      4278      4280      4292      4295      4279      4278      4280      4281
      4279      4278      4280      4282      4279      4278      4280      4292
      4280      4292      4295      4296      4280      4292      4295      4297
      4280      4292      4295      4298      4281      4280      4292      4293
      4281      4280      4292      4294      4281      4280      4292      4295
      4282      4280      4292      4293      4282      4280      4292      4294
      4282      4280      4292      4295      4283      4286      4287      4288
      4283      4286      4287      4289      4284      4283      4286      4287
      4285      4283      4286      4287      4286      4287      4289      4290
      4286      4287      4289      4291      4286      4287      4289      4339
      4287      4289      4339      4340      4287      4289      4339      4341
      4287      4289      4339      4342      4288      4287      4289      4290
      4288      4287      4289      4291      4288      4287      4289      4339
      4289      4339      4342      4343      4289      4339      4342      4344
      4289      4339      4342      4345      4290      4289      4339      4340
      4290      4289      4339      4341      4290      4289      4339      4342
      4291      4289      4339      4340      4291      4289      4339      4341
      4291      4289      4339      4342      4292      4295      4298      4299
      4292      4295      4298      4300      4293      4292      4295      4296
      4293      4292      4295      4297      4293      4292      4295      4298
      4294      4292      4295      4296      4294      4292      4295      4297
      4294      4292      4295      4298      4295      4298      4300      4301
      4295      4298      4300      4302      4296      4295      4298      4299
      4296      4295      4298      4300      4297      4295      4298      4299
      4297      4295      4298      4300      4298      4300      4302      4303
      4298      4300      4302      4304      4298      4300      4302      4305
      4299      4298      4300      4301      4299      4298      4300      4302
      4300      4302      4305      4306      4300      4302      4305      4307
      4301      4300      4302      4303      4301      4300      4302      4304
      4301      4300      4302      4305      4302      4305      4307      4308
      4302      4305      4307      4309      4303      4302      4305      4306
      4303      4302      4305      4307      4304      4302      4305      4306
      4304      4302      4305      4307      4305      4307      4309      4310
      4305      4307      4309      4311      4305      4307      4309      4312
      4306      4305      4307      4308      4306      4305      4307      4309
      4307      4309      4312      4313      4307      4309      4312      4314
      4308      4307      4309      4310      4308      4307      4309      4311
      4308      4307      4309      4312      4309      4312      4314      4315
      4309      4312      4314      4316      4310      4309      4312      4313
      4310      4309      4312      4314      4311      4309      4312      4313
      4311      4309      4312      4314      4312      4314      4316      4317
      4312      4314      4316      4318      4312      4314      4316      4319
      4313      4312      4314      4315      4313      4312      4314      4316
      4314      4316      4319      4320      4314      4316      4319      4321
      4315      4314      4316      4317      4315      4314      4316      4318
      4315      4314      4316      4319      4316      4319      4321      4322
      4316      4319      4321      4323      4317      4316      4319      4320
      4317      4316      4319      4321      4318      4316      4319      4320
      4318      4316      4319      4321      4319      4321      4323      4324
      4319      4321      4323      4325      4319      4321      4323      4326
      4320      4319      4321      4322      4320      4319      4321      4323
      4321      4323      4326      4327      4321      4323      4326      4328
      4321      4323      4326      4329      4322      4321      4323      4324
      4322      4321      4323      4325      4322      4321      4323      4326
      4323      4326      4329      4330      4323      4326      4329      4331
      4323      4326      4329      4332      4324      4323      4326      4327
      4324      4323      4326      4328      4324      4323      4326      4329
      4325      4323      4326      4327      4325      4323      4326      4328
      4325      4323      4326      4329      4326      4329      4332      4333
      4326      4329      4332      4334      4326      4329      4332      4335
      4327      4326      4329      4330      4327      4326      4329      4331
      4327      4326      4329      4332      4328      4326      4329      4330
      4328      4326      4329      4331      4328      4326      4329      4332
      4329      4332      4335      4336      4329      4332      4335      4337
      4329      4332      4335      4338      4330      4329      4332      4333
      4330      4329      4332      4334      4330      4329      4332      4335
      4331      4329      4332      4333      4331      4329      4332      4334
      4331      4329      4332      4335      4333      4332      4335      4336
      4333      4332      4335      4337      4333      4332      4335      4338
      4334      4332      4335      4336      4334      4332      4335      4337
      4334      4332      4335      4338      4339      4342      4345      4346
      4339      4342      4345      4347      4339      4342      4345      4348
      4340      4339      4342      4343      4340      4339      4342      4344
      4340      4339      4342      4345      4341      4339      4342      4343
      4341      4339      4342      4344      4341      4339      4342      4345
      4342      4345      4348      4349      4342      4345      4348      4350
      4342      4345      4348      4351      4343      4342      4345      4346
      4343      4342      4345      4347      4343      4342      4345      4348
      4344      4342      4345      4346      4344      4342      4345      4347
      4344      4342      4345      4348      4345      4348      4351      4352
      4345      4348      4351      4353      4345      4348      4351      4354
      4346      4345      4348      4349      4346      4345      4348      4350
      4346      4345      4348      4351      4347      4345      4348      4349
      4347      4345      4348      4350      4347      4345      4348      4351
      4348      4351      4354      4355      4348      4351      4354      4356
      4348      4351      4354      4357      4349      4348      4351      4352
      4349      4348      4351      4353      4349      4348      4351      4354
      4350      4348      4351      4352      4350      4348      4351      4353
      4350      4348      4351      4354      4351      4354      4357      4358
      4351      4354      4357      4359      4351      4354      4357      4360
      4352      4351      4354      4355      4352      4351      4354      4356
      4352      4351      4354      4357      4353      4351      4354      4355
      4353      4351      4354      4356      4353      4351      4354      4357
      4354      4357      4360      4361      4354      4357      4360      4362
      4354      4357      4360      4363      4355      4354      4357      4358
      4355      4354      4357      4359      4355      4354      4357      4360
      4356      4354      4357      4358      4356      4354      4357      4359
      4356      4354      4357      4360      4357      4360      4363      4364
      4357      4360      4363      4365      4357      4360      4363      4366
      4358      4357      4360      4361      4358      4357      4360      4362
      4358      4357      4360      4363      4359      4357      4360      4361
      4359      4357      4360      4362      4359      4357      4360      4363
      4360      4363      4366      4367      4360      4363      4366      4368
      4360      4363      4366      4369      4361      4360      4363      4364
      4361      4360      4363      4365      4361      4360      4363      4366
      4362      4360      4363      4364      4362      4360      4363      4365
      4362      4360      4363      4366      4363      4366      4369      4370
      4363      4366      4369      4371      4363      4366      4369      4372
      4364      4363      4366      4367      4364      4363      4366      4368
      4364      4363      4366      4369      4365      4363      4366      4367
      4365      4363      4366      4368      4365      4363      4366      4369
      4366      4369      4372      4373      4366      4369      4372      4374
      4366      4369      4372      4375      4367      4366      4369      4370
      4367      4366      4369      4371      4367      4366      4369      4372
      4368      4366      4369      4370      4368      4366      4369      4371
      4368      4366      4369      4372      4369      4372      4375      4376
      4369      4372      4375      4377      4369      4372      4375      4378
      4370      4369      4372      4373      4370      4369      4372      4374
      4370      4369      4372      4375      4371      4369      4372      4373
      4371      4369      4372      4374      4371      4369      4372      4375
      4372      4375      4378      4379      4372      4375      4378      4380
      4372      4375      4378      4381      4373      4372      4375      4376
      4373      4372      4375      4377      4373      4372      4375      4378
      4374      4372      4375      4376      4374      4372      4375      4377
      4374      4372      4375      4378      4375      4378      4381      4382
      4375      4378      4381      4383      4375      4378      4381      4384
      4376      4375      4378      4379      4376      4375      4378      4380
      4376      4375      4378      4381      4377      4375      4378      4379
      4377      4375      4378      4380      4377      4375      4378      4381
      4378      4381      4384      4385      4378      4381      4384      4386
      4378      4381      4384      4387      4379      4378      4381      4382
      4379      4378      4381      4383      4379      4378      4381      4384
      4380      4378      4381      4382      4380      4378      4381      4383
      4380      4378      4381      4384      4382      4381      4384      4385
      4382      4381      4384      4386      4382      4381      4384      4387
      4383      4381      4384      4385      4383      4381      4384      4386
      4383      4381      4384      4387      4388      4392      4395      4396
      4388      4392      4395      4397      4388      4392      4395      4401
      4389      4388      4392      4393      4389      4388      4392      4394
      4389      4388      4392      4395      4390      4388      4392      4393
      4390      4388      4392      4394      4390      4388      4392      4395
      4391      4388      4392      4393      4391      4388      4392      4394
      4391      4388      4392      4395      4392      4395      4401      4398
      4393      4392      4395      4396      4393      4392      4395      4397
      4393      4392      4395      4401      4394      4392      4395      4396
      4394      4392      4395      4397      4394      4392      4395      4401
      4395      4401      4398      4399      4395      4401      4398      4400
      4395      4401      4398      4402      4396      4395      4401      4398
      4397      4395      4401      4398      4398      4402      4403      4404
      4398      4402      4403      4405      4398      4402      4403      4406
      4399      4398      4402      4403      4400      4398      4402      4403
      4401      4398      4402      4403      4402      4403      4406      4407
      4402      4403      4406      4408      4402      4403      4406      4414
      4403      4406      4408      4409      4403      4406      4414      4415
      4403      4406      4414      4416      4403      4406      4414      4417
      4404      4403      4406      4407      4404      4403      4406      4408
      4404      4403      4406      4414      4405      4403      4406      4407
      4405      4403      4406      4408      4405      4403      4406      4414
      4406      4408      4409      4410      4406      4408      4409      4411
      4406      4414      4417      4418      4407      4406      4408      4409
      4407      4406      4414      4415      4407      4406      4414      4416
      4407      4406      4414      4417      4408      4406      4414      4415
      4408      4406      4414      4416      4408      4406      4414      4417
      4408      4409      4411      4412      4408      4409      4411      4413
      4408      4409      4411      4423      4409      4408      4406      4414
      4409      4411      4423      4424      4409      4411      4423      4425
      4409      4411      4423      4426      4410      4409      4411      4412
      4410      4409      4411      4413      4410      4409      4411      4423
      4411      4423      4426      4427      4411      4423      4426      4428
      4411      4423      4426      4429      4412      4411      4423      4424
      4412      4411      4423      4425      4412      4411      4423      4426
      4413      4411      4423      4424      4413      4411      4423      4425
      4413      4411      4423      4426      4414      4417      4418      4419
      4414      4417      4418      4420      4415      4414      4417      4418
      4416      4414      4417      4418      4417      4418      4420      4421
      4417      4418      4420      4422      4417      4418      4420      4470
      4418      4420      4470      4471      4418      4420      4470      4472
      4418      4420      4470      4473      4419      4418      4420      4421
      4419      4418      4420      4422      4419      4418      4420      4470
      4420      4470      4473      4474      4420      4470      4473      4475
      4420      4470      4473      4476      4421      4420      4470      4471
      4421      4420      4470      4472      4421      4420      4470      4473
      4422      4420      4470      4471      4422      4420      4470      4472
      4422      4420      4470      4473      4423      4426      4429      4430
      4423      4426      4429      4431      4423      4426      4429      4432
      4424      4423      4426      4427      4424      4423      4426      4428
      4424      4423      4426      4429      4425      4423      4426      4427
      4425      4423      4426      4428      4425      4423      4426      4429
      4426      4429      4432      4433      4426      4429      4432      4434
      4426      4429      4432      4435      4427      4426      4429      4430
      4427      4426      4429      4431      4427      4426      4429      4432
      4428      4426      4429      4430      4428      4426      4429      4431
      4428      4426      4429      4432      4429      4432      4435      4436
      4429      4432      4435      4437      4429      4432      4435      4438
      4430      4429      4432      4433      4430      4429      4432      4434
      4430      4429      4432      4435      4431      4429      4432      4433
      4431      4429      4432      4434      4431      4429      4432      4435
      4432      4435      4438      4439      4432      4435      4438      4440
      4432      4435      4438      4441      4433      4432      4435      4436
      4433      4432      4435      4437      4433      4432      4435      4438
      4434      4432      4435      4436      4434      4432      4435      4437
      4434      4432      4435      4438      4435      4438      4441      4442
      4435      4438      4441      4443      4436      4435      4438      4439
      4436      4435      4438      4440      4436      4435      4438      4441
      4437      4435      4438      4439      4437      4435      4438      4440
      4437      4435      4438      4441      4438      4441      4443      4444
      4438      4441      4443      4445      4439      4438      4441      4442
      4439      4438      4441      4443      4440      4438      4441      4442
      4440      4438      4441      4443      4441      4443      4445      4446
      4441      4443      4445      4447      4441      4443      4445      4448
      4442      4441      4443      4444      4442      4441      4443      4445
      4443      4445      4448      4449      4443      4445      4448      4450
      4443      4445      4448      4451      4444      4443      4445      4446
      4444      4443      4445      4447      4444      4443      4445      4448
      4445      4448      4451      4452      4445      4448      4451      4453
      4445      4448      4451      4454      4446      4445      4448      4449
      4446      4445      4448      4450      4446      4445      4448      4451
      4447      4445      4448      4449      4447      4445      4448      4450
      4447      4445      4448      4451      4448      4451      4454      4455
      4448      4451      4454      4456      4448      4451      4454      4457
      4449      4448      4451      4452      4449      4448      4451      4453
      4449      4448      4451      4454      4450      4448      4451      4452
      4450      4448      4451      4453      4450      4448      4451      4454
      4451      4454      4457      4458      4451      4454      4457      4459
      4451      4454      4457      4460      4452      4451      4454      4455
      4452      4451      4454      4456      4452      4451      4454      4457
      4453      4451      4454      4455      4453      4451      4454      4456
      4453      4451      4454      4457      4454      4457      4460      4461
      4454      4457      4460      4462      4454      4457      4460      4463
      4455      4454      4457      4458      4455      4454      4457      4459
      4455      4454      4457      4460      4456      4454      4457      4458
      4456      4454      4457      4459      4456      4454      4457      4460
      4457      4460      4463      4464      4457      4460      4463      4465
      4457      4460      4463      4466      4458      4457      4460      4461
      4458      4457      4460      4462      4458      4457      4460      4463
      4459      4457      4460      4461      4459      4457      4460      4462
      4459      4457      4460      4463      4460      4463      4466      4467
      4460      4463      4466      4468      4460      4463      4466      4469
      4461      4460      4463      4464      4461      4460      4463      4465
      4461      4460      4463      4466      4462      4460      4463      4464
      4462      4460      4463      4465      4462      4460      4463      4466
      4464      4463      4466      4467      4464      4463      4466      4468
      4464      4463      4466      4469      4465      4463      4466      4467
      4465      4463      4466      4468      4465      4463      4466      4469
      4470      4473      4476      4477      4470      4473      4476      4478
      4470      4473      4476      4479      4471      4470      4473      4474
      4471      4470      4473      4475      4471      4470      4473      4476
      4472      4470      4473      4474      4472      4470      4473      4475
      4472      4470      4473      4476      4473      4476      4479      4480
      4473      4476      4479      4481      4473      4476      4479      4482
      4474      4473      4476      4477      4474      4473      4476      4478
      4474      4473      4476      4479      4475      4473      4476      4477
      4475      4473      4476      4478      4475      4473      4476      4479
      4476      4479      4482      4483      4476      4479      4482      4484
      4476      4479      4482      4485      4477      4476      4479      4480
      4477      4476      4479      4481      4477      4476      4479      4482
      4478      4476      4479      4480      4478      4476      4479      4481
      4478      4476      4479      4482      4479      4482      4485      4486
      4479      4482      4485      4487      4479      4482      4485      4488
      4480      4479      4482      4483      4480      4479      4482      4484
      4480      4479      4482      4485      4481      4479      4482      4483
      4481      4479      4482      4484      4481      4479      4482      4485
      4482      4485      4488      4489      4482      4485      4488      4490
      4482      4485      4488      4491      4483      4482      4485      4486
      4483      4482      4485      4487      4483      4482      4485      4488
      4484      4482      4485      4486      4484      4482      4485      4487
      4484      4482      4485      4488      4485      4488      4491      4492
      4485      4488      4491      4493      4485      4488      4491      4494
      4486      4485      4488      4489      4486      4485      4488      4490
      4486      4485      4488      4491      4487      4485      4488      4489
      4487      4485      4488      4490      4487      4485      4488      4491
      4488      4491      4494      4495      4488      4491      4494      4496
      4488      4491      4494      4497      4489      4488      4491      4492
      4489      4488      4491      4493      4489      4488      4491      4494
      4490      4488      4491      4492      4490      4488      4491      4493
      4490      4488      4491      4494      4491      4494      4497      4498
      4491      4494      4497      4499      4491      4494      4497      4500
      4492      4491      4494      4495      4492      4491      4494      4496
      4492      4491      4494      4497      4493      4491      4494      4495
      4493      4491      4494      4496      4493      4491      4494      4497
      4494      4497      4500      4501      4494      4497      4500      4502
      4494      4497      4500      4503      4495      4494      4497      4498
      4495      4494      4497      4499      4495      4494      4497      4500
      4496      4494      4497      4498      4496      4494      4497      4499
      4496      4494      4497      4500      4497      4500      4503      4504
      4497      4500      4503      4505      4497      4500      4503      4506
      4498      4497      4500      4501      4498      4497      4500      4502
      4498      4497      4500      4503      4499      4497      4500      4501
      4499      4497      4500      4502      4499      4497      4500      4503
      4500      4503      4506      4507      4500      4503      4506      4508
      4500      4503      4506      4509      4501      4500      4503      4504
      4501      4500      4503      4505      4501      4500      4503      4506
      4502      4500      4503      4504      4502      4500      4503      4505
      4502      4500      4503      4506      4503      4506      4509      4510
      4503      4506      4509      4511      4503      4506      4509      4512
      4504      4503      4506      4507      4504      4503      4506      4508
      4504      4503      4506      4509      4505      4503      4506      4507
      4505      4503      4506      4508      4505      4503      4506      4509
      4506      4509      4512      4513      4506      4509      4512      4514
      4506      4509      4512      4515      4507      4506      4509      4510
      4507      4506      4509      4511      4507      4506      4509      4512
      4508      4506      4509      4510      4508      4506      4509      4511
      4508      4506      4509      4512      4509      4512      4515      4516
      4509      4512      4515      4517      4509      4512      4515      4518
      4510      4509      4512      4513      4510      4509      4512      4514
      4510      4509      4512      4515      4511      4509      4512      4513
      4511      4509      4512      4514      4511      4509      4512      4515
      4513      4512      4515      4516      4513      4512      4515      4517
      4513      4512      4515      4518      4514      4512      4515      4516
      4514      4512      4515      4517      4514      4512      4515      4518
      4519      4523      4525      4526      4519      4523      4525      4527
      4519      4523      4528      4529      4519      4523      4528      4530
      4519      4523      4528      4534      4520      4519      4523      4524
      4520      4519      4523      4525      4520      4519      4523      4528
      4521      4519      4523      4524      4521      4519      4523      4525
      4521      4519      4523      4528      4522      4519      4523      4524
      4522      4519      4523      4525      4522      4519      4523      4528
      4523      4528      4534      4531      4524      4523      4525      4526
      4524      4523      4525      4527      4524      4523      4528      4529
      4524      4523      4528      4530      4524      4523      4528      4534
      4525      4523      4528      4529      4525      4523      4528      4530
      4525      4523      4528      4534      4526      4525      4523      4528
      4527      4525      4523      4528      4528      4534      4531      4532
      4528      4534      4531      4533      4528      4534      4531      4535
      4529      4528      4534      4531      4530      4528      4534      4531
      4531      4535      4536      4537      4531      4535      4536      4538
      4531      4535      4536      4539      4532      4531      4535      4536
      4533      4531      4535      4536      4534      4531      4535      4536
      4535      4536      4539      4540      4535      4536      4539      4541
      4535      4536      4539      4547      4536      4539      4541      4542
      4536      4539      4547      4548      4536      4539      4547      4549
      4536      4539      4547      4550      4537      4536      4539      4540
      4537      4536      4539      4541      4537      4536      4539      4547
      4538      4536      4539      4540      4538      4536      4539      4541
      4538      4536      4539      4547      4539      4541      4542      4543
      4539      4541      4542      4544      4539      4547      4550      4551
      4540      4539      4541      4542      4540      4539      4547      4548
      4540      4539      4547      4549      4540      4539      4547      4550
      4541      4539      4547      4548      4541      4539      4547      4549
      4541      4539      4547      4550      4541      4542      4544      4545
      4541      4542      4544      4546      4541      4542      4544      4556
      4542      4541      4539      4547      4542      4544      4556      4557
      4542      4544      4556      4558      4542      4544      4556      4559
      4543      4542      4544      4545      4543      4542      4544      4546
      4543      4542      4544      4556      4544      4556      4559      4560
      4544      4556      4559      4561      4544      4556      4559      4562
      4545      4544      4556      4557      4545      4544      4556      4558
      4545      4544      4556      4559      4546      4544      4556      4557
      4546      4544      4556      4558      4546      4544      4556      4559
      4547      4550      4551      4552      4547      4550      4551      4553
      4548      4547      4550      4551      4549      4547      4550      4551
      4550      4551      4553      4554      4550      4551      4553      4555
      4550      4551      4553      4603      4551      4553      4603      4604
      4551      4553      4603      4605      4551      4553      4603      4606
      4552      4551      4553      4554      4552      4551      4553      4555
      4552      4551      4553      4603      4553      4603      4606      4607
      4553      4603      4606      4608      4553      4603      4606      4609
      4554      4553      4603      4604      4554      4553      4603      4605
      4554      4553      4603      4606      4555      4553      4603      4604
      4555      4553      4603      4605      4555      4553      4603      4606
      4556      4559      4562      4563      4556      4559      4562      4564
      4557      4556      4559      4560      4557      4556      4559      4561
      4557      4556      4559      4562      4558      4556      4559      4560
      4558      4556      4559      4561      4558      4556      4559      4562
      4559      4562      4564      4565      4559      4562      4564      4566
      4560      4559      4562      4563      4560      4559      4562      4564
      4561      4559      4562      4563      4561      4559      4562      4564
      4562      4564      4566      4567      4562      4564      4566      4568
      4562      4564      4566      4569      4563      4562      4564      4565
      4563      4562      4564      4566      4564      4566      4569      4570
      4564      4566      4569      4571      4565      4564      4566      4567
      4565      4564      4566      4568      4565      4564      4566      4569
      4566      4569      4571      4572      4566      4569      4571      4573
      4567      4566      4569      4570      4567      4566      4569      4571
      4568      4566      4569      4570      4568      4566      4569      4571
      4569      4571      4573      4574      4569      4571      4573      4575
      4569      4571      4573      4576      4570      4569      4571      4572
      4570      4569      4571      4573      4571      4573      4576      4577
      4571      4573      4576      4578      4572      4571      4573      4574
      4572      4571      4573      4575      4572      4571      4573      4576
      4573      4576      4578      4579      4573      4576      4578      4580
      4574      4573      4576      4577      4574      4573      4576      4578
      4575      4573      4576      4577      4575      4573      4576      4578
      4576      4578      4580      4581      4576      4578      4580      4582
      4576      4578      4580      4583      4577      4576      4578      4579
      4577      4576      4578      4580      4578      4580      4583      4584
      4578      4580      4583      4585      4579      4578      4580      4581
      4579      4578      4580      4582      4579      4578      4580      4583
      4580      4583      4585      4586      4580      4583      4585      4587
      4581      4580      4583      4584      4581      4580      4583      4585
      4582      4580      4583      4584      4582      4580      4583      4585
      4583      4585      4587      4588      4583      4585      4587      4589
      4583      4585      4587      4590      4584      4583      4585      4586
      4584      4583      4585      4587      4585      4587      4590      4591
      4585      4587      4590      4592      4585      4587      4590      4593
      4586      4585      4587      4588      4586      4585      4587      4589
      4586      4585      4587      4590      4587      4590      4593      4594
      4587      4590      4593      4595      4587      4590      4593      4596
      4588      4587      4590      4591      4588      4587      4590      4592
      4588      4587      4590      4593      4589      4587      4590      4591
      4589      4587      4590      4592      4589      4587      4590      4593
      4590      4593      4596      4597      4590      4593      4596      4598
      4590      4593      4596      4599      4591      4590      4593      4594
      4591      4590      4593      4595      4591      4590      4593      4596
      4592      4590      4593      4594      4592      4590      4593      4595
      4592      4590      4593      4596      4593      4596      4599      4600
      4593      4596      4599      4601      4593      4596      4599      4602
      4594      4593      4596      4597      4594      4593      4596      4598
      4594      4593      4596      4599      4595      4593      4596      4597
      4595      4593      4596      4598      4595      4593      4596      4599
      4597      4596      4599      4600      4597      4596      4599      4601
      4597      4596      4599      4602      4598      4596      4599      4600
      4598      4596      4599      4601      4598      4596      4599      4602
      4603      4606      4609      4610      4603      4606      4609      4611
      4603      4606      4609      4612      4604      4603      4606      4607
      4604      4603      4606      4608      4604      4603      4606      4609
      4605      4603      4606      4607      4605      4603      4606      4608
      4605      4603      4606      4609      4606      4609      4612      4613
      4606      4609      4612      4614      4606      4609      4612      4615
      4607      4606      4609      4610      4607      4606      4609      4611
      4607      4606      4609      4612      4608      4606      4609      4610
      4608      4606      4609      4611      4608      4606      4609      4612
      4609      4612      4615      4616      4609      4612      4615      4617
      4609      4612      4615      4618      4610      4609      4612      4613
      4610      4609      4612      4614      4610      4609      4612      4615
      4611      4609      4612      4613      4611      4609      4612      4614
      4611      4609      4612      4615      4612      4615      4618      4619
      4612      4615      4618      4620      4612      4615      4618      4621
      4613      4612      4615      4616      4613      4612      4615      4617
      4613      4612      4615      4618      4614      4612      4615      4616
      4614      4612      4615      4617      4614      4612      4615      4618
      4615      4618      4621      4622      4615      4618      4621      4623
      4615      4618      4621      4624      4616      4615      4618      4619
      4616      4615      4618      4620      4616      4615      4618      4621
      4617      4615      4618      4619      4617      4615      4618      4620
      4617      4615      4618      4621      4618      4621      4624      4625
      4618      4621      4624      4626      4618      4621      4624      4627
      4619      4618      4621      4622      4619      4618      4621      4623
      4619      4618      4621      4624      4620      4618      4621      4622
      4620      4618      4621      4623      4620      4618      4621      4624
      4621      4624      4627      4628      4621      4624      4627      4629
      4621      4624      4627      4630      4622      4621      4624      4625
      4622      4621      4624      4626      4622      4621      4624      4627
      4623      4621      4624      4625      4623      4621      4624      4626
      4623      4621      4624      4627      4624      4627      4630      4631
      4624      4627      4630      4632      4624      4627      4630      4633
      4625      4624      4627      4628      4625      4624      4627      4629
      4625      4624      4627      4630      4626      4624      4627      4628
      4626      4624      4627      4629      4626      4624      4627      4630
      4627      4630      4633      4634      4627      4630      4633      4635
      4627      4630      4633      4636      4628      4627      4630      4631
      4628      4627      4630      4632      4628      4627      4630      4633
      4629      4627      4630      4631      4629      4627      4630      4632
      4629      4627      4630      4633      4630      4633      4636      4637
      4630      4633      4636      4638      4630      4633      4636      4639
      4631      4630      4633      4634      4631      4630      4633      4635
      4631      4630      4633      4636      4632      4630      4633      4634
      4632      4630      4633      4635      4632      4630      4633      4636
      4633      4636      4639      4640      4633      4636      4639      4641
      4633      4636      4639      4642      4634      4633      4636      4637
      4634      4633      4636      4638      4634      4633      4636      4639
      4635      4633      4636      4637      4635      4633      4636      4638
      4635      4633      4636      4639      4636      4639      4642      4643
      4636      4639      4642      4644      4636      4639      4642      4645
      4637      4636      4639      4640      4637      4636      4639      4641
      4637      4636      4639      4642      4638      4636      4639      4640
      4638      4636      4639      4641      4638      4636      4639      4642
      4639      4642      4645      4646      4639      4642      4645      4647
      4639      4642      4645      4648      4640      4639      4642      4643
      4640      4639      4642      4644      4640      4639      4642      4645
      4641      4639      4642      4643      4641      4639      4642      4644
      4641      4639      4642      4645      4642      4645      4648      4649
      4642      4645      4648      4650      4642      4645      4648      4651
      4643      4642      4645      4646      4643      4642      4645      4647
      4643      4642      4645      4648      4644      4642      4645      4646
      4644      4642      4645      4647      4644      4642      4645      4648
      4646      4645      4648      4649      4646      4645      4648      4650
      4646      4645      4648      4651      4647      4645      4648      4649
      4647      4645      4648      4650      4647      4645      4648      4651
      4652      4656      4658      4659      4652      4656      4660      4661
      4652      4656      4660      4662      4652      4656      4660      4664
      4652      4672      4668      4664      4652      4672      4668      4669
      4652      4672      4668      4670      4652      4672      4677      4674
      4653      4652      4654      4655      4653      4652      4656      4657
      4653      4652      4656      4658      4653      4652      4656      4660
      4653      4652      4672      4668      4653      4652      4672      4673
      4653      4652      4672      4677      4654      4652      4656      4657
      4654      4652      4656      4658      4654      4652      4656      4660
      4654      4652      4672      4668      4654      4652      4672      4673
      4654      4652      4672      4677      4655      4654      4652      4656
      4655      4654      4652      4672      4656      4652      4672      4668
      4656      4652      4672      4673      4656      4652      4672      4677
      4656      4660      4662      4663      4656      4660      4664      4665
      4656      4660      4664      4666      4656      4660      4664      4668
      4657      4656      4652      4672      4657      4656      4658      4659
      4657      4656      4660      4661      4657      4656      4660      4662
      4657      4656      4660      4664      4658      4656      4652      4672
      4658      4656      4660      4661      4658      4656      4660      4662
      4658      4656      4660      4664      4659      4658      4656      4660
      4660      4656      4652      4672      4660      4664      4666      4667
      4660      4664      4668      4669      4660      4664      4668      4670
      4660      4664      4668      4672      4661      4660      4662      4663
      4661      4660      4664      4665      4661      4660      4664      4666
      4661      4660      4664      4668      4662      4660      4664      4665
      4662      4660      4664      4666      4662      4660      4664      4668
      4663      4662      4660      4664      4664      4668      4670      4671
      4664      4668      4672      4673      4664      4668      4672      4677
      4665      4664      4666      4667      4665      4664      4668      4669
      4665      4664      4668      4670      4665      4664      4668      4672
      4666      4664      4668      4669      4666      4664      4668      4670
      4666      4664      4668      4672      4667      4666      4664      4668
      4668      4672      4677      4674      4669      4668      4670      4671
      4669      4668      4672      4673      4669      4668      4672      4677
      4670      4668      4672      4673      4670      4668      4672      4677
      4671      4670      4668      4672      4672      4677      4674      4675
      4672      4677      4674      4676      4672      4677      4674      4678
      4673      4672      4677      4674      4674      4678      4679      4680
      4674      4678      4679      4681      4674      4678      4679      4682
      4675      4674      4678      4679      4676      4674      4678      4679
      4677      4674      4678      4679      4678      4679      4682      4683
      4678      4679      4682      4684      4678      4679      4682      4690
      4679      4682      4684      4685      4679      4682      4690      4691
      4679      4682      4690      4692      4679      4682      4690      4693
      4680      4679      4682      4683      4680      4679      4682      4684
      4680      4679      4682      4690      4681      4679      4682      4683
      4681      4679      4682      4684      4681      4679      4682      4690
      4682      4684      4685      4686      4682      4684      4685      4687
      4682      4690      4693      4694      4683      4682      4684      4685
      4683      4682      4690      4691      4683      4682      4690      4692
      4683      4682      4690      4693      4684      4682      4690      4691
      4684      4682      4690      4692      4684      4682      4690      4693
      4684      4685      4687      4688      4684      4685      4687      4689
      4684      4685      4687      4699      4685      4684      4682      4690
      4685      4687      4699      4700      4685      4687      4699      4701
      4685      4687      4699      4702      4686      4685      4687      4688
      4686      4685      4687      4689      4686      4685      4687      4699
      4687      4699      4702      4703      4687      4699      4702      4704
      4687      4699      4702      4705      4688      4687      4699      4700
      4688      4687      4699      4701      4688      4687      4699      4702
      4689      4687      4699      4700      4689      4687      4699      4701
      4689      4687      4699      4702      4690      4693      4694      4695
      4690      4693      4694      4696      4691      4690      4693      4694
      4692      4690      4693      4694      4693      4694      4696      4697
      4693      4694      4696      4698      4693      4694      4696      4746
      4694      4696      4746      4747      4694      4696      4746      4748
      4694      4696      4746      4749      4695      4694      4696      4697
      4695      4694      4696      4698      4695      4694      4696      4746
      4696      4746      4749      4750      4696      4746      4749      4751
      4696      4746      4749      4752      4697      4696      4746      4747
      4697      4696      4746      4748      4697      4696      4746      4749
      4698      4696      4746      4747      4698      4696      4746      4748
      4698      4696      4746      4749      4699      4702      4705      4706
      4699      4702      4705      4707      4700      4699      4702      4703
      4700      4699      4702      4704      4700      4699      4702      4705
      4701      4699      4702      4703      4701      4699      4702      4704
      4701      4699      4702      4705      4702      4705      4707      4708
      4702      4705      4707      4709      4703      4702      4705      4706
      4703      4702      4705      4707      4704      4702      4705      4706
      4704      4702      4705      4707      4705      4707      4709      4710
      4705      4707      4709      4711      4705      4707      4709      4712
      4706      4705      4707      4708      4706      4705      4707      4709
      4707      4709      4712      4713      4707      4709      4712      4714
      4708      4707      4709      4710      4708      4707      4709      4711
      4708      4707      4709      4712      4709      4712      4714      4715
      4709      4712      4714      4716      4710      4709      4712      4713
      4710      4709      4712      4714      4711      4709      4712      4713
      4711      4709      4712      4714      4712      4714      4716      4717
      4712      4714      4716      4718      4712      4714      4716      4719
      4713      4712      4714      4715      4713      4712      4714      4716
      4714      4716      4719      4720      4714      4716      4719      4721
      4715      4714      4716      4717      4715      4714      4716      4718
      4715      4714      4716      4719      4716      4719      4721      4722
      4716      4719      4721      4723      4717      4716      4719      4720
      4717      4716      4719      4721      4718      4716      4719      4720
      4718      4716      4719      4721      4719      4721      4723      4724
      4719      4721      4723      4725      4719      4721      4723      4726
      4720      4719      4721      4722      4720      4719      4721      4723
      4721      4723      4726      4727      4721      4723      4726      4728
      4722      4721      4723      4724      4722      4721      4723      4725
      4722      4721      4723      4726      4723      4726      4728      4729
      4723      4726      4728      4730      4724      4723      4726      4727
      4724      4723      4726      4728      4725      4723      4726      4727
      4725      4723      4726      4728      4726      4728      4730      4731
      4726      4728      4730      4732      4726      4728      4730      4733
      4727      4726      4728      4729      4727      4726      4728      4730
      4728      4730      4733      4734      4728      4730      4733      4735
      4728      4730      4733      4736      4729      4728      4730      4731
      4729      4728      4730      4732      4729      4728      4730      4733
      4730      4733      4736      4737      4730      4733      4736      4738
      4730      4733      4736      4739      4731      4730      4733      4734
      4731      4730      4733      4735      4731      4730      4733      4736
      4732      4730      4733      4734      4732      4730      4733      4735
      4732      4730      4733      4736      4733      4736      4739      4740
      4733      4736      4739      4741      4733      4736      4739      4742
      4734      4733      4736      4737      4734      4733      4736      4738
      4734      4733      4736      4739      4735      4733      4736      4737
      4735      4733      4736      4738      4735      4733      4736      4739
      4736      4739      4742      4743      4736      4739      4742      4744
      4736      4739      4742      4745      4737      4736      4739      4740
      4737      4736      4739      4741      4737      4736      4739      4742
      4738      4736      4739      4740      4738      4736      4739      4741
      4738      4736      4739      4742      4740      4739      4742      4743
      4740      4739      4742      4744      4740      4739      4742      4745
      4741      4739      4742      4743      4741      4739      4742      4744
      4741      4739      4742      4745      4746      4749      4752      4753
      4746      4749      4752      4754      4746      4749      4752      4755
      4747      4746      4749      4750      4747      4746      4749      4751
      4747      4746      4749      4752      4748      4746      4749      4750
      4748      4746      4749      4751      4748      4746      4749      4752
      4749      4752      4755      4756      4749      4752      4755      4757
      4749      4752      4755      4758      4750      4749      4752      4753
      4750      4749      4752      4754      4750      4749      4752      4755
      4751      4749      4752      4753      4751      4749      4752      4754
      4751      4749      4752      4755      4752      4755      4758      4759
      4752      4755      4758      4760      4752      4755      4758      4761
      4753      4752      4755      4756      4753      4752      4755      4757
      4753      4752      4755      4758      4754      4752      4755      4756
      4754      4752      4755      4757      4754      4752      4755      4758
      4755      4758      4761      4762      4755      4758      4761      4763
      4755      4758      4761      4764      4756      4755      4758      4759
      4756      4755      4758      4760      4756      4755      4758      4761
      4757      4755      4758      4759      4757      4755      4758      4760
      4757      4755      4758      4761      4758      4761      4764      4765
      4758      4761      4764      4766      4758      4761      4764      4767
      4759      4758      4761      4762      4759      4758      4761      4763
      4759      4758      4761      4764      4760      4758      4761      4762
      4760      4758      4761      4763      4760      4758      4761      4764
      4761      4764      4767      4768      4761      4764      4767      4769
      4761      4764      4767      4770      4762      4761      4764      4765
      4762      4761      4764      4766      4762      4761      4764      4767
      4763      4761      4764      4765      4763      4761      4764      4766
      4763      4761      4764      4767      4764      4767      4770      4771
      4764      4767      4770      4772      4764      4767      4770      4773
      4765      4764      4767      4768      4765      4764      4767      4769
      4765      4764      4767      4770      4766      4764      4767      4768
      4766      4764      4767      4769      4766      4764      4767      4770
      4767      4770      4773      4774      4767      4770      4773      4775
      4767      4770      4773      4776      4768      4767      4770      4771
      4768      4767      4770      4772      4768      4767      4770      4773
      4769      4767      4770      4771      4769      4767      4770      4772
      4769      4767      4770      4773      4770      4773      4776      4777
      4770      4773      4776      4778      4770      4773      4776      4779
      4771      4770      4773      4774      4771      4770      4773      4775
      4771      4770      4773      4776      4772      4770      4773      4774
      4772      4770      4773      4775      4772      4770      4773      4776
      4773      4776      4779      4780      4773      4776      4779      4781
      4773      4776      4779      4782      4774      4773      4776      4777
      4774      4773      4776      4778      4774      4773      4776      4779
      4775      4773      4776      4777      4775      4773      4776      4778
      4775      4773      4776      4779      4776      4779      4782      4783
      4776      4779      4782      4784      4776      4779      4782      4785
      4777      4776      4779      4780      4777      4776      4779      4781
      4777      4776      4779      4782      4778      4776      4779      4780
      4778      4776      4779      4781      4778      4776      4779      4782
      4779      4782      4785      4786      4779      4782      4785      4787
      4779      4782      4785      4788      4780      4779      4782      4783
      4780      4779      4782      4784      4780      4779      4782      4785
      4781      4779      4782      4783      4781      4779      4782      4784
      4781      4779      4782      4785      4782      4785      4788      4789
      4782      4785      4788      4790      4782      4785      4788      4791
      4783      4782      4785      4786      4783      4782      4785      4787
      4783      4782      4785      4788      4784      4782      4785      4786
      4784      4782      4785      4787      4784      4782      4785      4788
      4785      4788      4791      4792      4785      4788      4791      4793
      4785      4788      4791      4794      4786      4785      4788      4789
      4786      4785      4788      4790      4786      4785      4788      4791
      4787      4785      4788      4789      4787      4785      4788      4790
      4787      4785      4788      4791      4789      4788      4791      4792
      4789      4788      4791      4793      4789      4788      4791      4794
      4790      4788      4791      4792      4790      4788      4791      4793
      4790      4788      4791      4794      4795      4799      4802      4803
      4795      4799      4802      4833      4795      4841      4838      4833
      4795      4841      4838      4839      4795      4841      4838      4840
      4796      4795      4797      4798      4796      4795      4799      4800
      4796      4795      4799      4801      4796      4795      4799      4802
      4796      4795      4841      4838      4796      4795      4841      4842
      4796      4795      4841      4843      4797      4795      4799      4800
      4797      4795      4799      4801      4797      4795      4799      4802
      4797      4795      4841      4838      4797      4795      4841      4842
      4797      4795      4841      4843      4798      4797      4795      4799
      4798      4797      4795      4841      4799      4795      4841      4838
      4799      4795      4841      4842      4799      4795      4841      4843
      4799      4802      4803      4804      4799      4802      4803      4805
      4799      4802      4833      4831      4799      4802      4833      4834
      4799      4802      4833      4838      4800      4799      4795      4841
      4800      4799      4802      4803      4800      4799      4802      4833
      4801      4799      4795      4841      4801      4799      4802      4803
      4801      4799      4802      4833      4802      4799      4795      4841
      4802      4803      4805      4806      4802      4803      4805      4807
      4802      4803      4805      4808      4802      4833      4831      4808
      4802      4833      4831      4828      4802      4833      4831      4832
      4802      4833      4834      4835      4802      4833      4834      4836
      4802      4833      4834      4837      4802      4833      4838      4839
      4802      4833      4838      4840      4802      4833      4838      4841
      4803      4802      4833      4831      4803      4802      4833      4834
      4803      4802      4833      4838      4803      4805      4808      4809
      4803      4805      4808      4810      4803      4805      4808      4831
      4804      4803      4802      4833      4804      4803      4805      4806
      4804      4803      4805      4807      4804      4803      4805      4808
      4805      4803      4802      4833      4805      4808      4810      4811
      4805      4808      4810      4812      4805      4808      4810      4820
      4805      4808      4831      4828      4805      4808      4831      4832
      4805      4808      4831      4833      4806      4805      4808      4809
      4806      4805      4808      4810      4806      4805      4808      4831
      4807      4805      4808      4809      4807      4805      4808      4810
      4807      4805      4808      4831      4808      4810      4812      4813
      4808      4810      4812      4814      4808      4810      4812      4815
      4808      4810      4820      4818      4808      4810      4820      4821
      4808      4810      4820      4825      4808      4831      4828      4825
      4808      4831      4828      4829      4808      4831      4828      4830
      4808      4831      4833      4834      4808      4831      4833      4838
      4809      4808      4810      4811      4809      4808      4810      4812
      4809      4808      4810      4820      4809      4808      4831      4828
      4809      4808      4831      4832      4809      4808      4831      4833
      4810      4808      4831      4828      4810      4808      4831      4832
      4810      4808      4831      4833      4810      4812      4815      4816
      4810      4812      4815      4817      4810      4812      4815      4818
      4810      4820      4818      4815      4810      4820      4818      4819
      4810      4820      4818      4844      4810      4820      4821      4822
      4810      4820      4821      4823      4810      4820      4821      4824
      4810      4820      4825      4826      4810      4820      4825      4827
      4810      4820      4825      4828      4811      4810      4808      4831
      4811      4810      4812      4813      4811      4810      4812      4814
      4811      4810      4812      4815      4811      4810      4820      4818
      4811      4810      4820      4821      4811      4810      4820      4825
      4812      4810      4808      4831      4812      4810      4820      4818
      4812      4810      4820      4821      4812      4810      4820      4825
      4812      4815      4818      4819      4812      4815      4818      4820
      4812      4815      4818      4844      4813      4812      4810      4820
      4813      4812      4815      4816      4813      4812      4815      4817
      4813      4812      4815      4818      4814      4812      4810      4820
      4814      4812      4815      4816      4814      4812      4815      4817
      4814      4812      4815      4818      4815      4812      4810      4820
      4815      4818      4820      4821      4815      4818      4820      4825
      4815      4818      4844      4845      4815      4818      4844      4846
      4815      4818      4844      4850      4816      4815      4818      4819
      4816      4815      4818      4820      4816      4815      4818      4844
      4817      4815      4818      4819      4817      4815      4818      4820
      4817      4815      4818      4844      4818      4820      4821      4822
      4818      4820      4821      4823      4818      4820      4821      4824
      4818      4820      4825      4826      4818      4820      4825      4827
      4818      4820      4825      4828      4818      4844      4846      4847
      4818      4844      4846      4848      4818      4844      4846      4849
      4818      4844      4850      4851      4818      4844      4850      4852
      4818      4844      4850      4853      4819      4818      4820      4821
      4819      4818      4820      4825      4819      4818      4844      4845
      4819      4818      4844      4846      4819      4818      4844      4850
      4820      4810      4808      4831      4820      4818      4844      4845
      4820      4818      4844      4846      4820      4818      4844      4850
      4820      4825      4828      4829      4820      4825      4828      4830
      4820      4825      4828      4831      4821      4820      4818      4844
      4821      4820      4825      4826      4821      4820      4825      4827
      4821      4820      4825      4828      4822      4821      4820      4825
      4823      4821      4820      4825      4824      4821      4820      4825
      4825      4820      4818      4844      4825      4828      4831      4832
      4825      4828      4831      4833      4826      4825      4828      4829
      4826      4825      4828      4830      4826      4825      4828      4831
      4827      4825      4828      4829      4827      4825      4828      4830
      4827      4825      4828      4831      4828      4831      4833      4834
      4828      4831      4833      4838      4829      4828      4831      4832
      4829      4828      4831      4833      4830      4828      4831      4832
      4830      4828      4831      4833      4831      4833      4834      4835
      4831      4833      4834      4836      4831      4833      4834      4837
      4831      4833      4838      4839      4831      4833      4838      4840
      4831      4833      4838      4841      4832      4831      4833      4834
      4832      4831      4833      4838      4833      4838      4841      4842
      4833      4838      4841      4843      4834      4833      4838      4839
      4834      4833      4838      4840      4834      4833      4838      4841
      4835      4834      4833      4838      4836      4834      4833      4838
      4837      4834      4833      4838      4839      4838      4841      4842
      4839      4838      4841      4843      4840      4838      4841      4842
      4840      4838      4841      4843      4844      4850      4853      4854
      4844      4850      4853      4855      4844      4850      4853      4856
      4845      4844      4846      4847      4845      4844      4846      4848
      4845      4844      4846      4849      4845      4844      4850      4851
      4845      4844      4850      4852      4845      4844      4850      4853
      4846      4844      4850      4851      4846      4844      4850      4852
      4846      4844      4850      4853      4847      4846      4844      4850
      4848      4846      4844      4850      4849      4846      4844      4850
      4850      4853      4856      4857      4850      4853      4856      4858
      4850      4853      4856      4859      4851      4850      4853      4854
      4851      4850      4853      4855      4851      4850      4853      4856
      4852      4850      4853      4854      4852      4850      4853      4855
      4852      4850      4853      4856      4853      4856      4859      4860
      4853      4856      4859      4861      4853      4856      4859      4865
      4854      4853      4856      4857      4854      4853      4856      4858
      4854      4853      4856      4859      4855      4853      4856      4857
      4855      4853      4856      4858      4855      4853      4856      4859
      4856      4859      4861      4862      4856      4859      4861      4863
      4856      4859      4861      4864      4856      4859      4865      4866
      4856      4859      4865      4867      4856      4859      4865      4868
      4857      4856      4859      4860      4857      4856      4859      4861
      4857      4856      4859      4865      4858      4856      4859      4860
      4858      4856      4859      4861      4858      4856      4859      4865
      4860      4859      4861      4862      4860      4859      4861      4863
      4860      4859      4861      4864      4860      4859      4865      4866
      4860      4859      4865      4867      4860      4859      4865      4868
      4861      4859      4865      4866      4861      4859      4865      4867
      4861      4859      4865      4868      4862      4861      4859      4865
      4863      4861      4859      4865      4864      4861      4859      4865
      4869      4873      4876      4877      4869      4873      4876      4907
      4869      4915      4912      4907      4869      4915      4912      4913
      4869      4915      4912      4914      4870      4869      4871      4872
      4870      4869      4873      4874      4870      4869      4873      4875
      4870      4869      4873      4876      4870      4869      4915      4912
      4870      4869      4915      4916      4870      4869      4915      4917
      4871      4869      4873      4874      4871      4869      4873      4875
      4871      4869      4873      4876      4871      4869      4915      4912
      4871      4869      4915      4916      4871      4869      4915      4917
      4872      4871      4869      4873      4872      4871      4869      4915
      4873      4869      4915      4912      4873      4869      4915      4916
      4873      4869      4915      4917      4873      4876      4877      4878
      4873      4876      4877      4879      4873      4876      4907      4905
      4873      4876      4907      4908      4873      4876      4907      4912
      4874      4873      4869      4915      4874      4873      4876      4877
      4874      4873      4876      4907      4875      4873      4869      4915
      4875      4873      4876      4877      4875      4873      4876      4907
      4876      4873      4869      4915      4876      4877      4879      4880
      4876      4877      4879      4881      4876      4877      4879      4882
      4876      4907      4905      4882      4876      4907      4905      4902
      4876      4907      4905      4906      4876      4907      4908      4909
      4876      4907      4908      4910      4876      4907      4908      4911
      4876      4907      4912      4913      4876      4907      4912      4914
      4876      4907      4912      4915      4877      4876      4907      4905
      4877      4876      4907      4908      4877      4876      4907      4912
      4877      4879      4882      4883      4877      4879      4882      4884
      4877      4879      4882      4905      4878      4877      4876      4907
      4878      4877      4879      4880      4878      4877      4879      4881
      4878      4877      4879      4882      4879      4877      4876      4907
      4879      4882      4884      4885      4879      4882      4884      4886
      4879      4882      4884      4894      4879      4882      4905      4902
      4879      4882      4905      4906      4879      4882      4905      4907
      4880      4879      4882      4883      4880      4879      4882      4884
      4880      4879      4882      4905      4881      4879      4882      4883
      4881      4879      4882      4884      4881      4879      4882      4905
      4882      4884      4886      4887      4882      4884      4886      4888
      4882      4884      4886      4889      4882      4884      4894      4892
      4882      4884      4894      4895      4882      4884      4894      4899
      4882      4905      4902      4899      4882      4905      4902      4903
      4882      4905      4902      4904      4882      4905      4907      4908
      4882      4905      4907      4912      4883      4882      4884      4885
      4883      4882      4884      4886      4883      4882      4884      4894
      4883      4882      4905      4902      4883      4882      4905      4906
      4883      4882      4905      4907      4884      4882      4905      4902
      4884      4882      4905      4906      4884      4882      4905      4907
      4884      4886      4889      4890      4884      4886      4889      4891
      4884      4886      4889      4892      4884      4894      4892      4889
      4884      4894      4892      4893      4884      4894      4892      4918
      4884      4894      4895      4896      4884      4894      4895      4897
      4884      4894      4895      4898      4884      4894      4899      4900
      4884      4894      4899      4901      4884      4894      4899      4902
      4885      4884      4882      4905      4885      4884      4886      4887
      4885      4884      4886      4888      4885      4884      4886      4889
      4885      4884      4894      4892      4885      4884      4894      4895
      4885      4884      4894      4899      4886      4884      4882      4905
      4886      4884      4894      4892      4886      4884      4894      4895
      4886      4884      4894      4899      4886      4889      4892      4893
      4886      4889      4892      4894      4886      4889      4892      4918
      4887      4886      4884      4894      4887      4886      4889      4890
      4887      4886      4889      4891      4887      4886      4889      4892
      4888      4886      4884      4894      4888      4886      4889      4890
      4888      4886      4889      4891      4888      4886      4889      4892
      4889      4886      4884      4894      4889      4892      4894      4895
      4889      4892      4894      4899      4889      4892      4918      4919
      4889      4892      4918      4920      4889      4892      4918      4924
      4890      4889      4892      4893      4890      4889      4892      4894
      4890      4889      4892      4918      4891      4889      4892      4893
      4891      4889      4892      4894      4891      4889      4892      4918
      4892      4894      4895      4896      4892      4894      4895      4897
      4892      4894      4895      4898      4892      4894      4899      4900
      4892      4894      4899      4901      4892      4894      4899      4902
      4892      4918      4920      4921      4892      4918      4920      4922
      4892      4918      4920      4923      4892      4918      4924      4925
      4892      4918      4924      4926      4892      4918      4924      4927
      4893      4892      4894      4895      4893      4892      4894      4899
      4893      4892      4918      4919      4893      4892      4918      4920
      4893      4892      4918      4924      4894      4884      4882      4905
      4894      4892      4918      4919      4894      4892      4918      4920
      4894      4892      4918      4924      4894      4899      4902      4903
      4894      4899      4902      4904      4894      4899      4902      4905
      4895      4894      4892      4918      4895      4894      4899      4900
      4895      4894      4899      4901      4895      4894      4899      4902
      4896      4895      4894      4899      4897      4895      4894      4899
      4898      4895      4894      4899      4899      4894      4892      4918
      4899      4902      4905      4906      4899      4902      4905      4907
      4900      4899      4902      4903      4900      4899      4902      4904
      4900      4899      4902      4905      4901      4899      4902      4903
      4901      4899      4902      4904      4901      4899      4902      4905
      4902      4905      4907      4908      4902      4905      4907      4912
      4903      4902      4905      4906      4903      4902      4905      4907
      4904      4902      4905      4906      4904      4902      4905      4907
      4905      4907      4908      4909      4905      4907      4908      4910
      4905      4907      4908      4911      4905      4907      4912      4913
      4905      4907      4912      4914      4905      4907      4912      4915
      4906      4905      4907      4908      4906      4905      4907      4912
      4907      4912      4915      4916      4907      4912      4915      4917
      4908      4907      4912      4913      4908      4907      4912      4914
      4908      4907      4912      4915      4909      4908      4907      4912
      4910      4908      4907      4912      4911      4908      4907      4912
      4913      4912      4915      4916      4913      4912      4915      4917
      4914      4912      4915      4916      4914      4912      4915      4917
      4918      4924      4927      4928      4918      4924      4927      4929
      4918      4924      4927      4930      4919      4918      4920      4921
      4919      4918      4920      4922      4919      4918      4920      4923
      4919      4918      4924      4925      4919      4918      4924      4926
      4919      4918      4924      4927      4920      4918      4924      4925
      4920      4918      4924      4926      4920      4918      4924      4927
      4921      4920      4918      4924      4922      4920      4918      4924
      4923      4920      4918      4924      4924      4927      4930      4931
      4924      4927      4930      4932      4924      4927      4930      4933
      4925      4924      4927      4928      4925      4924      4927      4929
      4925      4924      4927      4930      4926      4924      4927      4928
      4926      4924      4927      4929      4926      4924      4927      4930
      4927      4930      4933      4934      4927      4930      4933      4935
      4927      4930      4933      4939      4928      4927      4930      4931
      4928      4927      4930      4932      4928      4927      4930      4933
      4929      4927      4930      4931      4929      4927      4930      4932
      4929      4927      4930      4933      4930      4933      4935      4936
      4930      4933      4935      4937      4930      4933      4935      4938
      4930      4933      4939      4940      4930      4933      4939      4941
      4930      4933      4939      4942      4931      4930      4933      4934
      4931      4930      4933      4935      4931      4930      4933      4939
      4932      4930      4933      4934      4932      4930      4933      4935
      4932      4930      4933      4939      4934      4933      4935      4936
      4934      4933      4935      4937      4934      4933      4935      4938
      4934      4933      4939      4940      4934      4933      4939      4941
      4934      4933      4939      4942      4935      4933      4939      4940
      4935      4933      4939      4941      4935      4933      4939      4942
      4936      4935      4933      4939      4937      4935      4933      4939
      4938      4935      4933      4939      4943      4944      4959      4960
      4943      4944      4959      4961      4943      4944      4959      4965
      4944      4943      4947      4948      4944      4943      4947      4949
      4944      4943      4947      4950      4944      4943      4951      4952
      4944      4943      4951      4953      4944      4943      4951      4954
      4944      4943      4955      4956      4944      4943      4955      4957
      4944      4943      4955      4958      4944      4959      4965      4962
      4945      4944      4943      4947      4945      4944      4943      4951
      4945      4944      4943      4955      4945      4944      4959      4960
      4945      4944      4959      4961      4945      4944      4959      4965
      4946      4944      4943      4947      4946      4944      4943      4951
      4946      4944      4943      4955      4946      4944      4959      4960
      4946      4944      4959      4961      4946      4944      4959      4965
      4947      4943      4944      4959      4947      4943      4951      4952
      4947      4943      4951      4953      4947      4943      4951      4954
      4947      4943      4955      4956      4947      4943      4955      4957
      4947      4943      4955      4958      4948      4947      4943      4951
      4948      4947      4943      4955      4949      4947      4943      4951
      4949      4947      4943      4955      4950      4947      4943      4951
      4950      4947      4943      4955      4951      4943      4944      4959
      4951      4943      4955      4956      4951      4943      4955      4957
      4951      4943      4955      4958      4952      4951      4943      4955
      4953      4951      4943      4955      4954      4951      4943      4955
      4955      4943      4944      4959      4959      4965      4962      4963
      4959      4965      4962      4964      4959      4965      4962      4966
      4960      4959      4965      4962      4961      4959      4965      4962
      4962      4966      4967      4968      4962      4966      4967      4969
      4962      4966      4967      4970      4963      4962      4966      4967
      4964      4962      4966      4967      4965      4962      4966      4967
      4966      4967      4970      4971      4966      4967      4970      4972
      4966      4967      4970      4978      4967      4970      4972      4973
      4967      4970      4978      4979      4967      4970      4978      4980
      4967      4970      4978      4981      4968      4967      4970      4971
      4968      4967      4970      4972      4968      4967      4970      4978
      4969      4967      4970      4971      4969      4967      4970      4972
      4969      4967      4970      4978      4970      4972      4973      4974
      4970      4972      4973      4975      4970      4978      4981      4982
      4971      4970      4972      4973      4971      4970      4978      4979
      4971      4970      4978      4980      4971      4970      4978      4981
      4972      4970      4978      4979      4972      4970      4978      4980
      4972      4970      4978      4981      4972      4973      4975      4976
      4972      4973      4975      4977      4972      4973      4975      4987
      4973      4972      4970      4978      4973      4975      4987      4988
      4973      4975      4987      4989      4973      4975      4987      4990
      4974      4973      4975      4976      4974      4973      4975      4977
      4974      4973      4975      4987      4975      4987      4990      4991
      4975      4987      4990      4992      4975      4987      4990      4993
      4976      4975      4987      4988      4976      4975      4987      4989
      4976      4975      4987      4990      4977      4975      4987      4988
      4977      4975      4987      4989      4977      4975      4987      4990
      4978      4981      4982      4983      4978      4981      4982      4984
      4979      4978      4981      4982      4980      4978      4981      4982
      4981      4982      4984      4985      4981      4982      4984      4986
      4981      4982      4984      5034      4982      4984      5034      5035
      4982      4984      5034      5036      4982      4984      5034      5037
      4983      4982      4984      4985      4983      4982      4984      4986
      4983      4982      4984      5034      4984      5034      5037      5038
      4984      5034      5037      5039      4984      5034      5037      5040
      4985      4984      5034      5035      4985      4984      5034      5036
      4985      4984      5034      5037      4986      4984      5034      5035
      4986      4984      5034      5036      4986      4984      5034      5037
      4987      4990      4993      4994      4987      4990      4993      4995
      4988      4987      4990      4991      4988      4987      4990      4992
      4988      4987      4990      4993      4989      4987      4990      4991
      4989      4987      4990      4992      4989      4987      4990      4993
      4990      4993      4995      4996      4990      4993      4995      4997
      4991      4990      4993      4994      4991      4990      4993      4995
      4992      4990      4993      4994      4992      4990      4993      4995
      4993      4995      4997      4998      4993      4995      4997      4999
      4993      4995      4997      5000      4994      4993      4995      4996
      4994      4993      4995      4997      4995      4997      5000      5001
      4995      4997      5000      5002      4996      4995      4997      4998
      4996      4995      4997      4999      4996      4995      4997      5000
      4997      5000      5002      5003      4997      5000      5002      5004
      4998      4997      5000      5001      4998      4997      5000      5002
      4999      4997      5000      5001      4999      4997      5000      5002
      5000      5002      5004      5005      5000      5002      5004      5006
      5000      5002      5004      5007      5001      5000      5002      5003
      5001      5000      5002      5004      5002      5004      5007      5008
      5002      5004      5007      5009      5003      5002      5004      5005
      5003      5002      5004      5006      5003      5002      5004      5007
      5004      5007      5009      5010      5004      5007      5009      5011
      5005      5004      5007      5008      5005      5004      5007      5009
      5006      5004      5007      5008      5006      5004      5007      5009
      5007      5009      5011      5012      5007      5009      5011      5013
      5007      5009      5011      5014      5008      5007      5009      5010
      5008      5007      5009      5011      5009      5011      5014      5015
      5009      5011      5014      5016      5010      5009      5011      5012
      5010      5009      5011      5013      5010      5009      5011      5014
      5011      5014      5016      5017      5011      5014      5016      5018
      5012      5011      5014      5015      5012      5011      5014      5016
      5013      5011      5014      5015      5013      5011      5014      5016
      5014      5016      5018      5019      5014      5016      5018      5020
      5014      5016      5018      5021      5015      5014      5016      5017
      5015      5014      5016      5018      5016      5018      5021      5022
      5016      5018      5021      5023      5016      5018      5021      5024
      5017      5016      5018      5019      5017      5016      5018      5020
      5017      5016      5018      5021      5018      5021      5024      5025
      5018      5021      5024      5026      5018      5021      5024      5027
      5019      5018      5021      5022      5019      5018      5021      5023
      5019      5018      5021      5024      5020      5018      5021      5022
      5020      5018      5021      5023      5020      5018      5021      5024
      5021      5024      5027      5028      5021      5024      5027      5029
      5021      5024      5027      5030      5022      5021      5024      5025
      5022      5021      5024      5026      5022      5021      5024      5027
      5023      5021      5024      5025      5023      5021      5024      5026
      5023      5021      5024      5027      5024      5027      5030      5031
      5024      5027      5030      5032      5024      5027      5030      5033
      5025      5024      5027      5028      5025      5024      5027      5029
      5025      5024      5027      5030      5026      5024      5027      5028
      5026      5024      5027      5029      5026      5024      5027      5030
      5028      5027      5030      5031      5028      5027      5030      5032
      5028      5027      5030      5033      5029      5027      5030      5031
      5029      5027      5030      5032      5029      5027      5030      5033
      5034      5037      5040      5041      5034      5037      5040      5042
      5034      5037      5040      5043      5035      5034      5037      5038
      5035      5034      5037      5039      5035      5034      5037      5040
      5036      5034      5037      5038      5036      5034      5037      5039
      5036      5034      5037      5040      5037      5040      5043      5044
      5037      5040      5043      5045      5037      5040      5043      5046
      5038      5037      5040      5041      5038      5037      5040      5042
      5038      5037      5040      5043      5039      5037      5040      5041
      5039      5037      5040      5042      5039      5037      5040      5043
      5040      5043      5046      5047      5040      5043      5046      5048
      5040      5043      5046      5049      5041      5040      5043      5044
      5041      5040      5043      5045      5041      5040      5043      5046
      5042      5040      5043      5044      5042      5040      5043      5045
      5042      5040      5043      5046      5043      5046      5049      5050
      5043      5046      5049      5051      5043      5046      5049      5052
      5044      5043      5046      5047      5044      5043      5046      5048
      5044      5043      5046      5049      5045      5043      5046      5047
      5045      5043      5046      5048      5045      5043      5046      5049
      5046      5049      5052      5053      5046      5049      5052      5054
      5046      5049      5052      5055      5047      5046      5049      5050
      5047      5046      5049      5051      5047      5046      5049      5052
      5048      5046      5049      5050      5048      5046      5049      5051
      5048      5046      5049      5052      5049      5052      5055      5056
      5049      5052      5055      5057      5049      5052      5055      5058
      5050      5049      5052      5053      5050      5049      5052      5054
      5050      5049      5052      5055      5051      5049      5052      5053
      5051      5049      5052      5054      5051      5049      5052      5055
      5052      5055      5058      5059      5052      5055      5058      5060
      5052      5055      5058      5061      5053      5052      5055      5056
      5053      5052      5055      5057      5053      5052      5055      5058
      5054      5052      5055      5056      5054      5052      5055      5057
      5054      5052      5055      5058      5055      5058      5061      5062
      5055      5058      5061      5063      5055      5058      5061      5064
      5056      5055      5058      5059      5056      5055      5058      5060
      5056      5055      5058      5061      5057      5055      5058      5059
      5057      5055      5058      5060      5057      5055      5058      5061
      5058      5061      5064      5065      5058      5061      5064      5066
      5058      5061      5064      5067      5059      5058      5061      5062
      5059      5058      5061      5063      5059      5058      5061      5064
      5060      5058      5061      5062      5060      5058      5061      5063
      5060      5058      5061      5064      5061      5064      5067      5068
      5061      5064      5067      5069      5061      5064      5067      5070
      5062      5061      5064      5065      5062      5061      5064      5066
      5062      5061      5064      5067      5063      5061      5064      5065
      5063      5061      5064      5066      5063      5061      5064      5067
      5064      5067      5070      5071      5064      5067      5070      5072
      5064      5067      5070      5073      5065      5064      5067      5068
      5065      5064      5067      5069      5065      5064      5067      5070
      5066      5064      5067      5068      5066      5064      5067      5069
      5066      5064      5067      5070      5067      5070      5073      5074
      5067      5070      5073      5075      5067      5070      5073      5076
      5068      5067      5070      5071      5068      5067      5070      5072
      5068      5067      5070      5073      5069      5067      5070      5071
      5069      5067      5070      5072      5069      5067      5070      5073
      5070      5073      5076      5077      5070      5073      5076      5078
      5070      5073      5076      5079      5071      5070      5073      5074
      5071      5070      5073      5075      5071      5070      5073      5076
      5072      5070      5073      5074      5072      5070      5073      5075
      5072      5070      5073      5076      5073      5076      5079      5080
      5073      5076      5079      5081      5073      5076      5079      5082
      5074      5073      5076      5077      5074      5073      5076      5078
      5074      5073      5076      5079      5075      5073      5076      5077
      5075      5073      5076      5078      5075      5073      5076      5079
      5077      5076      5079      5080      5077      5076      5079      5081
      5077      5076      5079      5082      5078      5076      5079      5080
      5078      5076      5079      5081      5078      5076      5079      5082
      5083      5087      5090      5091      5083      5087      5090      5121
      5083      5129      5126      5121      5083      5129      5126      5127
      5083      5129      5126      5128      5084      5083      5085      5086
      5084      5083      5087      5088      5084      5083      5087      5089
      5084      5083      5087      5090      5084      5083      5129      5126
      5084      5083      5129      5130      5084      5083      5129      5131
      5085      5083      5087      5088      5085      5083      5087      5089
      5085      5083      5087      5090      5085      5083      5129      5126
      5085      5083      5129      5130      5085      5083      5129      5131
      5086      5085      5083      5087      5086      5085      5083      5129
      5087      5083      5129      5126      5087      5083      5129      5130
      5087      5083      5129      5131      5087      5090      5091      5092
      5087      5090      5091      5093      5087      5090      5121      5119
      5087      5090      5121      5122      5087      5090      5121      5126
      5088      5087      5083      5129      5088      5087      5090      5091
      5088      5087      5090      5121      5089      5087      5083      5129
      5089      5087      5090      5091      5089      5087      5090      5121
      5090      5087      5083      5129      5090      5091      5093      5094
      5090      5091      5093      5095      5090      5091      5093      5096
      5090      5121      5119      5096      5090      5121      5119      5116
      5090      5121      5119      5120      5090      5121      5122      5123
      5090      5121      5122      5124      5090      5121      5122      5125
      5090      5121      5126      5127      5090      5121      5126      5128
      5090      5121      5126      5129      5091      5090      5121      5119
      5091      5090      5121      5122      5091      5090      5121      5126
      5091      5093      5096      5097      5091      5093      5096      5098
      5091      5093      5096      5119      5092      5091      5090      5121
      5092      5091      5093      5094      5092      5091      5093      5095
      5092      5091      5093      5096      5093      5091      5090      5121
      5093      5096      5098      5099      5093      5096      5098      5100
      5093      5096      5098      5108      5093      5096      5119      5116
      5093      5096      5119      5120      5093      5096      5119      5121
      5094      5093      5096      5097      5094      5093      5096      5098
      5094      5093      5096      5119      5095      5093      5096      5097
      5095      5093      5096      5098      5095      5093      5096      5119
      5096      5098      5100      5101      5096      5098      5100      5102
      5096      5098      5100      5103      5096      5098      5108      5106
      5096      5098      5108      5109      5096      5098      5108      5113
      5096      5119      5116      5113      5096      5119      5116      5117
      5096      5119      5116      5118      5096      5119      5121      5122
      5096      5119      5121      5126      5097      5096      5098      5099
      5097      5096      5098      5100      5097      5096      5098      5108
      5097      5096      5119      5116      5097      5096      5119      5120
      5097      5096      5119      5121      5098      5096      5119      5116
      5098      5096      5119      5120      5098      5096      5119      5121
      5098      5100      5103      5104      5098      5100      5103      5105
      5098      5100      5103      5106      5098      5108      5106      5103
      5098      5108      5106      5107      5098      5108      5106      5132
      5098      5108      5109      5110      5098      5108      5109      5111
      5098      5108      5109      5112      5098      5108      5113      5114
      5098      5108      5113      5115      5098      5108      5113      5116
      5099      5098      5096      5119      5099      5098      5100      5101
      5099      5098      5100      5102      5099      5098      5100      5103
      5099      5098      5108      5106      5099      5098      5108      5109
      5099      5098      5108      5113      5100      5098      5096      5119
      5100      5098      5108      5106      5100      5098      5108      5109
      5100      5098      5108      5113      5100      5103      5106      5107
      5100      5103      5106      5108      5100      5103      5106      5132
      5101      5100      5098      5108      5101      5100      5103      5104
      5101      5100      5103      5105      5101      5100      5103      5106
      5102      5100      5098      5108      5102      5100      5103      5104
      5102      5100      5103      5105      5102      5100      5103      5106
      5103      5100      5098      5108      5103      5106      5108      5109
      5103      5106      5108      5113      5103      5106      5132      5133
      5103      5106      5132      5134      5103      5106      5132      5138
      5104      5103      5106      5107      5104      5103      5106      5108
      5104      5103      5106      5132      5105      5103      5106      5107
      5105      5103      5106      5108      5105      5103      5106      5132
      5106      5108      5109      5110      5106      5108      5109      5111
      5106      5108      5109      5112      5106      5108      5113      5114
      5106      5108      5113      5115      5106      5108      5113      5116
      5106      5132      5134      5135      5106      5132      5134      5136
      5106      5132      5134      5137      5106      5132      5138      5139
      5106      5132      5138      5140      5106      5132      5138      5141
      5107      5106      5108      5109      5107      5106      5108      5113
      5107      5106      5132      5133      5107      5106      5132      5134
      5107      5106      5132      5138      5108      5098      5096      5119
      5108      5106      5132      5133      5108      5106      5132      5134
      5108      5106      5132      5138      5108      5113      5116      5117
      5108      5113      5116      5118      5108      5113      5116      5119
      5109      5108      5106      5132      5109      5108      5113      5114
      5109      5108      5113      5115      5109      5108      5113      5116
      5110      5109      5108      5113      5111      5109      5108      5113
      5112      5109      5108      5113      5113      5108      5106      5132
      5113      5116      5119      5120      5113      5116      5119      5121
      5114      5113      5116      5117      5114      5113      5116      5118
      5114      5113      5116      5119      5115      5113      5116      5117
      5115      5113      5116      5118      5115      5113      5116      5119
      5116      5119      5121      5122      5116      5119      5121      5126
      5117      5116      5119      5120      5117      5116      5119      5121
      5118      5116      5119      5120      5118      5116      5119      5121
      5119      5121      5122      5123      5119      5121      5122      5124
      5119      5121      5122      5125      5119      5121      5126      5127
      5119      5121      5126      5128      5119      5121      5126      5129
      5120      5119      5121      5122      5120      5119      5121      5126
      5121      5126      5129      5130      5121      5126      5129      5131
      5122      5121      5126      5127      5122      5121      5126      5128
      5122      5121      5126      5129      5123      5122      5121      5126
      5124      5122      5121      5126      5125      5122      5121      5126
      5127      5126      5129      5130      5127      5126      5129      5131
      5128      5126      5129      5130      5128      5126      5129      5131
      5132      5138      5141      5142      5132      5138      5141      5143
      5132      5138      5141      5144      5133      5132      5134      5135
      5133      5132      5134      5136      5133      5132      5134      5137
      5133      5132      5138      5139      5133      5132      5138      5140
      5133      5132      5138      5141      5134      5132      5138      5139
      5134      5132      5138      5140      5134      5132      5138      5141
      5135      5134      5132      5138      5136      5134      5132      5138
      5137      5134      5132      5138      5138      5141      5144      5145
      5138      5141      5144      5146      5138      5141      5144      5147
      5139      5138      5141      5142      5139      5138      5141      5143
      5139      5138      5141      5144      5140      5138      5141      5142
      5140      5138      5141      5143      5140      5138      5141      5144
      5141      5144      5147      5148      5141      5144      5147      5149
      5141      5144      5147      5153      5142      5141      5144      5145
      5142      5141      5144      5146      5142      5141      5144      5147
      5143      5141      5144      5145      5143      5141      5144      5146
      5143      5141      5144      5147      5144      5147      5149      5150
      5144      5147      5149      5151      5144      5147      5149      5152
      5144      5147      5153      5154      5144      5147      5153      5155
      5144      5147      5153      5156      5145      5144      5147      5148
      5145      5144      5147      5149      5145      5144      5147      5153
      5146      5144      5147      5148      5146      5144      5147      5149
      5146      5144      5147      5153      5148      5147      5149      5150
      5148      5147      5149      5151      5148      5147      5149      5152
      5148      5147      5153      5154      5148      5147      5153      5155
      5148      5147      5153      5156      5149      5147      5153      5154
      5149      5147      5153      5155      5149      5147      5153      5156
      5150      5149      5147      5153      5151      5149      5147      5153
      5152      5149      5147      5153      5157      5170      5173      5174
      5157      5170      5173      5175      5157      5170      5173      5179
      5158      5157      5162      5163      5158      5157      5162      5164
      5158      5157      5162      5165      5158      5157      5166      5167
      5158      5157      5166      5168      5158      5157      5166      5169
      5158      5157      5170      5171      5158      5157      5170      5172
      5158      5157      5170      5173      5159      5158      5157      5162
      5159      5158      5157      5166      5159      5158      5157      5170
      5160      5158      5157      5162      5160      5158      5157      5166
      5160      5158      5157      5170      5161      5158      5157      5162
      5161      5158      5157      5166      5161      5158      5157      5170
      5162      5157      5166      5167      5162      5157      5166      5168
      5162      5157      5166      5169      5162      5157      5170      5171
      5162      5157      5170      5172      5162      5157      5170      5173
      5163      5162      5157      5166      5163      5162      5157      5170
      5164      5162      5157      5166      5164      5162      5157      5170
      5165      5162      5157      5166      5165      5162      5157      5170
      5166      5157      5170      5171      5166      5157      5170      5172
      5166      5157      5170      5173      5167      5166      5157      5170
      5168      5166      5157      5170      5169      5166      5157      5170
      5170      5173      5179      5176      5171      5170      5173      5174
      5171      5170      5173      5175      5171      5170      5173      5179
      5172      5170      5173      5174      5172      5170      5173      5175
      5172      5170      5173      5179      5173      5179      5176      5177
      5173      5179      5176      5178      5173      5179      5176      5180
      5174      5173      5179      5176      5175      5173      5179      5176
      5176      5180      5181      5182      5176      5180      5181      5183
      5176      5180      5181      5184      5177      5176      5180      5181
      5178      5176      5180      5181      5179      5176      5180      5181
      5180      5181      5184      5185      5180      5181      5184      5186
      5180      5181      5184      5192      5181      5184      5186      5187
      5181      5184      5192      5193      5181      5184      5192      5194
      5181      5184      5192      5195      5182      5181      5184      5185
      5182      5181      5184      5186      5182      5181      5184      5192
      5183      5181      5184      5185      5183      5181      5184      5186
      5183      5181      5184      5192      5184      5186      5187      5188
      5184      5186      5187      5189      5184      5192      5195      5196
      5185      5184      5186      5187      5185      5184      5192      5193
      5185      5184      5192      5194      5185      5184      5192      5195
      5186      5184      5192      5193      5186      5184      5192      5194
      5186      5184      5192      5195      5186      5187      5189      5190
      5186      5187      5189      5191      5186      5187      5189      5201
      5187      5186      5184      5192      5187      5189      5201      5202
      5187      5189      5201      5203      5187      5189      5201      5204
      5188      5187      5189      5190      5188      5187      5189      5191
      5188      5187      5189      5201      5189      5201      5204      5205
      5189      5201      5204      5206      5189      5201      5204      5207
      5190      5189      5201      5202      5190      5189      5201      5203
      5190      5189      5201      5204      5191      5189      5201      5202
      5191      5189      5201      5203      5191      5189      5201      5204
      5192      5195      5196      5197      5192      5195      5196      5198
      5193      5192      5195      5196      5194      5192      5195      5196
      5195      5196      5198      5199      5195      5196      5198      5200
      5195      5196      5198      5246      5196      5198      5246      5247
      5196      5198      5246      5248      5196      5198      5246      5249
      5197      5196      5198      5199      5197      5196      5198      5200
      5197      5196      5198      5246      5198      5246      5249      5250
      5198      5246      5249      5251      5198      5246      5249      5252
      5199      5198      5246      5247      5199      5198      5246      5248
      5199      5198      5246      5249      5200      5198      5246      5247
      5200      5198      5246      5248      5200      5198      5246      5249
      5201      5204      5207      5208      5201      5204      5207      5209
      5201      5204      5207      5210      5202      5201      5204      5205
      5202      5201      5204      5206      5202      5201      5204      5207
      5203      5201      5204      5205      5203      5201      5204      5206
      5203      5201      5204      5207      5204      5207      5210      5211
      5204      5207      5210      5212      5204      5207      5210      5213
      5205      5204      5207      5208      5205      5204      5207      5209
      5205      5204      5207      5210      5206      5204      5207      5208
      5206      5204      5207      5209      5206      5204      5207      5210
      5207      5210      5213      5214      5207      5210      5213      5215
      5207      5210      5213      5216      5208      5207      5210      5211
      5208      5207      5210      5212      5208      5207      5210      5213
      5209      5207      5210      5211      5209      5207      5210      5212
      5209      5207      5210      5213      5210      5213      5216      5217
      5210      5213      5216      5218      5210      5213      5216      5219
      5211      5210      5213      5214      5211      5210      5213      5215
      5211      5210      5213      5216      5212      5210      5213      5214
      5212      5210      5213      5215      5212      5210      5213      5216
      5213      5216      5219      5220      5213      5216      5219      5221
      5214      5213      5216      5217      5214      5213      5216      5218
      5214      5213      5216      5219      5215      5213      5216      5217
      5215      5213      5216      5218      5215      5213      5216      5219
      5216      5219      5221      5222      5216      5219      5221      5223
      5217      5216      5219      5220      5217      5216      5219      5221
      5218      5216      5219      5220      5218      5216      5219      5221
      5219      5221      5223      5224      5219      5221      5223      5225
      5219      5221      5223      5226      5220      5219      5221      5222
      5220      5219      5221      5223      5221      5223      5226      5227
      5221      5223      5226      5228      5222      5221      5223      5224
      5222      5221      5223      5225      5222      5221      5223      5226
      5223      5226      5228      5229      5223      5226      5228      5230
      5224      5223      5226      5227      5224      5223      5226      5228
      5225      5223      5226      5227      5225      5223      5226      5228
      5226      5228      5230      5231      5226      5228      5230      5232
      5226      5228      5230      5233      5227      5226      5228      5229
      5227      5226      5228      5230      5228      5230      5233      5234
      5228      5230      5233      5235      5228      5230      5233      5236
      5229      5228      5230      5231      5229      5228      5230      5232
      5229      5228      5230      5233      5230      5233      5236      5237
      5230      5233      5236      5238      5230      5233      5236      5239
      5231      5230      5233      5234      5231      5230      5233      5235
      5231      5230      5233      5236      5232      5230      5233      5234
      5232      5230      5233      5235      5232      5230      5233      5236
      5233      5236      5239      5240      5233      5236      5239      5241
      5233      5236      5239      5242      5234      5233      5236      5237
      5234      5233      5236      5238      5234      5233      5236      5239
      5235      5233      5236      5237      5235      5233      5236      5238
      5235      5233      5236      5239      5236      5239      5242      5243
      5236      5239      5242      5244      5236      5239      5242      5245
      5237      5236      5239      5240      5237      5236      5239      5241
      5237      5236      5239      5242      5238      5236      5239      5240
      5238      5236      5239      5241      5238      5236      5239      5242
      5240      5239      5242      5243      5240      5239      5242      5244
      5240      5239      5242      5245      5241      5239      5242      5243
      5241      5239      5242      5244      5241      5239      5242      5245
      5246      5249      5252      5253      5246      5249      5252      5254
      5246      5249      5252      5255      5247      5246      5249      5250
      5247      5246      5249      5251      5247      5246      5249      5252
      5248      5246      5249      5250      5248      5246      5249      5251
      5248      5246      5249      5252      5249      5252      5255      5256
      5249      5252      5255      5257      5249      5252      5255      5258
      5250      5249      5252      5253      5250      5249      5252      5254
      5250      5249      5252      5255      5251      5249      5252      5253
      5251      5249      5252      5254      5251      5249      5252      5255
      5252      5255      5258      5259      5252      5255      5258      5260
      5252      5255      5258      5261      5253      5252      5255      5256
      5253      5252      5255      5257      5253      5252      5255      5258
      5254      5252      5255      5256      5254      5252      5255      5257
      5254      5252      5255      5258      5255      5258      5261      5262
      5255      5258      5261      5263      5255      5258      5261      5264
      5256      5255      5258      5259      5256      5255      5258      5260
      5256      5255      5258      5261      5257      5255      5258      5259
      5257      5255      5258      5260      5257      5255      5258      5261
      5258      5261      5264      5265      5258      5261      5264      5266
      5258      5261      5264      5267      5259      5258      5261      5262
      5259      5258      5261      5263      5259      5258      5261      5264
      5260      5258      5261      5262      5260      5258      5261      5263
      5260      5258      5261      5264      5261      5264      5267      5268
      5261      5264      5267      5269      5261      5264      5267      5270
      5262      5261      5264      5265      5262      5261      5264      5266
      5262      5261      5264      5267      5263      5261      5264      5265
      5263      5261      5264      5266      5263      5261      5264      5267
      5264      5267      5270      5271      5264      5267      5270      5272
      5264      5267      5270      5273      5265      5264      5267      5268
      5265      5264      5267      5269      5265      5264      5267      5270
      5266      5264      5267      5268      5266      5264      5267      5269
      5266      5264      5267      5270      5267      5270      5273      5274
      5267      5270      5273      5275      5267      5270      5273      5276
      5268      5267      5270      5271      5268      5267      5270      5272
      5268      5267      5270      5273      5269      5267      5270      5271
      5269      5267      5270      5272      5269      5267      5270      5273
      5270      5273      5276      5277      5270      5273      5276      5278
      5270      5273      5276      5279      5271      5270      5273      5274
      5271      5270      5273      5275      5271      5270      5273      5276
      5272      5270      5273      5274      5272      5270      5273      5275
      5272      5270      5273      5276      5273      5276      5279      5280
      5273      5276      5279      5281      5273      5276      5279      5282
      5274      5273      5276      5277      5274      5273      5276      5278
      5274      5273      5276      5279      5275      5273      5276      5277
      5275      5273      5276      5278      5275      5273      5276      5279
      5276      5279      5282      5283      5276      5279      5282      5284
      5276      5279      5282      5285      5277      5276      5279      5280
      5277      5276      5279      5281      5277      5276      5279      5282
      5278      5276      5279      5280      5278      5276      5279      5281
      5278      5276      5279      5282      5279      5282      5285      5286
      5279      5282      5285      5287      5279      5282      5285      5288
      5280      5279      5282      5283      5280      5279      5282      5284
      5280      5279      5282      5285      5281      5279      5282      5283
      5281      5279      5282      5284      5281      5279      5282      5285
      5282      5285      5288      5289      5282      5285      5288      5290
      5282      5285      5288      5291      5283      5282      5285      5286
      5283      5282      5285      5287      5283      5282      5285      5288
      5284      5282      5285      5286      5284      5282      5285      5287
      5284      5282      5285      5288      5285      5288      5291      5292
      5285      5288      5291      5293      5285      5288      5291      5294
      5286      5285      5288      5289      5286      5285      5288      5290
      5286      5285      5288      5291      5287      5285      5288      5289
      5287      5285      5288      5290      5287      5285      5288      5291
      5289      5288      5291      5292      5289      5288      5291      5293
      5289      5288      5291      5294      5290      5288      5291      5292
      5290      5288      5291      5293      5290      5288      5291      5294
      5295      5299      5302      5303      5295      5299      5302      5333
      5295      5341      5338      5333      5295      5341      5338      5339
      5295      5341      5338      5340      5296      5295      5297      5298
      5296      5295      5299      5300      5296      5295      5299      5301
      5296      5295      5299      5302      5296      5295      5341      5338
      5296      5295      5341      5342      5296      5295      5341      5343
      5297      5295      5299      5300      5297      5295      5299      5301
      5297      5295      5299      5302      5297      5295      5341      5338
      5297      5295      5341      5342      5297      5295      5341      5343
      5298      5297      5295      5299      5298      5297      5295      5341
      5299      5295      5341      5338      5299      5295      5341      5342
      5299      5295      5341      5343      5299      5302      5303      5304
      5299      5302      5303      5305      5299      5302      5333      5331
      5299      5302      5333      5334      5299      5302      5333      5338
      5300      5299      5295      5341      5300      5299      5302      5303
      5300      5299      5302      5333      5301      5299      5295      5341
      5301      5299      5302      5303      5301      5299      5302      5333
      5302      5299      5295      5341      5302      5303      5305      5306
      5302      5303      5305      5307      5302      5303      5305      5308
      5302      5333      5331      5308      5302      5333      5331      5328
      5302      5333      5331      5332      5302      5333      5334      5335
      5302      5333      5334      5336      5302      5333      5334      5337
      5302      5333      5338      5339      5302      5333      5338      5340
      5302      5333      5338      5341      5303      5302      5333      5331
      5303      5302      5333      5334      5303      5302      5333      5338
      5303      5305      5308      5309      5303      5305      5308      5310
      5303      5305      5308      5331      5304      5303      5302      5333
      5304      5303      5305      5306      5304      5303      5305      5307
      5304      5303      5305      5308      5305      5303      5302      5333
      5305      5308      5310      5311      5305      5308      5310      5312
      5305      5308      5310      5320      5305      5308      5331      5328
      5305      5308      5331      5332      5305      5308      5331      5333
      5306      5305      5308      5309      5306      5305      5308      5310
      5306      5305      5308      5331      5307      5305      5308      5309
      5307      5305      5308      5310      5307      5305      5308      5331
      5308      5310      5312      5313      5308      5310      5312      5314
      5308      5310      5312      5315      5308      5310      5320      5318
      5308      5310      5320      5321      5308      5310      5320      5325
      5308      5331      5328      5325      5308      5331      5328      5329
      5308      5331      5328      5330      5308      5331      5333      5334
      5308      5331      5333      5338      5309      5308      5310      5311
      5309      5308      5310      5312      5309      5308      5310      5320
      5309      5308      5331      5328      5309      5308      5331      5332
      5309      5308      5331      5333      5310      5308      5331      5328
      5310      5308      5331      5332      5310      5308      5331      5333
      5310      5312      5315      5316      5310      5312      5315      5317
      5310      5312      5315      5318      5310      5320      5318      5315
      5310      5320      5318      5319      5310      5320      5318      5344
      5310      5320      5321      5322      5310      5320      5321      5323
      5310      5320      5321      5324      5310      5320      5325      5326
      5310      5320      5325      5327      5310      5320      5325      5328
      5311      5310      5308      5331      5311      5310      5312      5313
      5311      5310      5312      5314      5311      5310      5312      5315
      5311      5310      5320      5318      5311      5310      5320      5321
      5311      5310      5320      5325      5312      5310      5308      5331
      5312      5310      5320      5318      5312      5310      5320      5321
      5312      5310      5320      5325      5312      5315      5318      5319
      5312      5315      5318      5320      5312      5315      5318      5344
      5313      5312      5310      5320      5313      5312      5315      5316
      5313      5312      5315      5317      5313      5312      5315      5318
      5314      5312      5310      5320      5314      5312      5315      5316
      5314      5312      5315      5317      5314      5312      5315      5318
      5315      5312      5310      5320      5315      5318      5320      5321
      5315      5318      5320      5325      5315      5318      5344      5345
      5315      5318      5344      5346      5315      5318      5344      5350
      5316      5315      5318      5319      5316      5315      5318      5320
      5316      5315      5318      5344      5317      5315      5318      5319
      5317      5315      5318      5320      5317      5315      5318      5344
      5318      5320      5321      5322      5318      5320      5321      5323
      5318      5320      5321      5324      5318      5320      5325      5326
      5318      5320      5325      5327      5318      5320      5325      5328
      5318      5344      5346      5347      5318      5344      5346      5348
      5318      5344      5346      5349      5318      5344      5350      5351
      5318      5344      5350      5352      5318      5344      5350      5353
      5319      5318      5320      5321      5319      5318      5320      5325
      5319      5318      5344      5345      5319      5318      5344      5346
      5319      5318      5344      5350      5320      5310      5308      5331
      5320      5318      5344      5345      5320      5318      5344      5346
      5320      5318      5344      5350      5320      5325      5328      5329
      5320      5325      5328      5330      5320      5325      5328      5331
      5321      5320      5318      5344      5321      5320      5325      5326
      5321      5320      5325      5327      5321      5320      5325      5328
      5322      5321      5320      5325      5323      5321      5320      5325
      5324      5321      5320      5325      5325      5320      5318      5344
      5325      5328      5331      5332      5325      5328      5331      5333
      5326      5325      5328      5329      5326      5325      5328      5330
      5326      5325      5328      5331      5327      5325      5328      5329
      5327      5325      5328      5330      5327      5325      5328      5331
      5328      5331      5333      5334      5328      5331      5333      5338
      5329      5328      5331      5332      5329      5328      5331      5333
      5330      5328      5331      5332      5330      5328      5331      5333
      5331      5333      5334      5335      5331      5333      5334      5336
      5331      5333      5334      5337      5331      5333      5338      5339
      5331      5333      5338      5340      5331      5333      5338      5341
      5332      5331      5333      5334      5332      5331      5333      5338
      5333      5338      5341      5342      5333      5338      5341      5343
      5334      5333      5338      5339      5334      5333      5338      5340
      5334      5333      5338      5341      5335      5334      5333      5338
      5336      5334      5333      5338      5337      5334      5333      5338
      5339      5338      5341      5342      5339      5338      5341      5343
      5340      5338      5341      5342      5340      5338      5341      5343
      5344      5350      5353      5354      5344      5350      5353      5355
      5344      5350      5353      5356      5345      5344      5346      5347
      5345      5344      5346      5348      5345      5344      5346      5349
      5345      5344      5350      5351      5345      5344      5350      5352
      5345      5344      5350      5353      5346      5344      5350      5351
      5346      5344      5350      5352      5346      5344      5350      5353
      5347      5346      5344      5350      5348      5346      5344      5350
      5349      5346      5344      5350      5350      5353      5356      5357
      5350      5353      5356      5358      5350      5353      5356      5359
      5351      5350      5353      5354      5351      5350      5353      5355
      5351      5350      5353      5356      5352      5350      5353      5354
      5352      5350      5353      5355      5352      5350      5353      5356
      5353      5356      5359      5360      5353      5356      5359      5361
      5353      5356      5359      5365      5354      5353      5356      5357
      5354      5353      5356      5358      5354      5353      5356      5359
      5355      5353      5356      5357      5355      5353      5356      5358
      5355      5353      5356      5359      5356      5359      5361      5362
      5356      5359      5361      5363      5356      5359      5361      5364
      5356      5359      5365      5366      5356      5359      5365      5367
      5356      5359      5365      5368      5357      5356      5359      5360
      5357      5356      5359      5361      5357      5356      5359      5365
      5358      5356      5359      5360      5358      5356      5359      5361
      5358      5356      5359      5365      5360      5359      5361      5362
      5360      5359      5361      5363      5360      5359      5361      5364
      5360      5359      5365      5366      5360      5359      5365      5367
      5360      5359      5365      5368      5361      5359      5365      5366
      5361      5359      5365      5367      5361      5359      5365      5368
      5362      5361      5359      5365      5363      5361      5359      5365
      5364      5361      5359      5365      5369      5382      5385      5386
      5369      5382      5385      5387      5369      5382      5385      5391
      5370      5369      5374      5375      5370      5369      5374      5376
      5370      5369      5374      5377      5370      5369      5378      5379
      5370      5369      5378      5380      5370      5369      5378      5381
      5370      5369      5382      5383      5370      5369      5382      5384
      5370      5369      5382      5385      5371      5370      5369      5374
      5371      5370      5369      5378      5371      5370      5369      5382
      5372      5370      5369      5374      5372      5370      5369      5378
      5372      5370      5369      5382      5373      5370      5369      5374
      5373      5370      5369      5378      5373      5370      5369      5382
      5374      5369      5378      5379      5374      5369      5378      5380
      5374      5369      5378      5381      5374      5369      5382      5383
      5374      5369      5382      5384      5374      5369      5382      5385
      5375      5374      5369      5378      5375      5374      5369      5382
      5376      5374      5369      5378      5376      5374      5369      5382
      5377      5374      5369      5378      5377      5374      5369      5382
      5378      5369      5382      5383      5378      5369      5382      5384
      5378      5369      5382      5385      5379      5378      5369      5382
      5380      5378      5369      5382      5381      5378      5369      5382
      5382      5385      5391      5388      5383      5382      5385      5386
      5383      5382      5385      5387      5383      5382      5385      5391
      5384      5382      5385      5386      5384      5382      5385      5387
      5384      5382      5385      5391      5385      5391      5388      5389
      5385      5391      5388      5390      5385      5391      5388      5392
      5386      5385      5391      5388      5387      5385      5391      5388
      5388      5392      5393      5394      5388      5392      5393      5395
      5388      5392      5393      5396      5389      5388      5392      5393
      5390      5388      5392      5393      5391      5388      5392      5393
      5392      5393      5396      5397      5392      5393      5396      5398
      5392      5393      5396      5404      5393      5396      5398      5399
      5393      5396      5404      5405      5393      5396      5404      5406
      5393      5396      5404      5407      5394      5393      5396      5397
      5394      5393      5396      5398      5394      5393      5396      5404
      5395      5393      5396      5397      5395      5393      5396      5398
      5395      5393      5396      5404      5396      5398      5399      5400
      5396      5398      5399      5401      5396      5404      5407      5408
      5397      5396      5398      5399      5397      5396      5404      5405
      5397      5396      5404      5406      5397      5396      5404      5407
      5398      5396      5404      5405      5398      5396      5404      5406
      5398      5396      5404      5407      5398      5399      5401      5402
      5398      5399      5401      5403      5398      5399      5401      5413
      5399      5398      5396      5404      5399      5401      5413      5414
      5399      5401      5413      5415      5399      5401      5413      5416
      5400      5399      5401      5402      5400      5399      5401      5403
      5400      5399      5401      5413      5401      5413      5416      5417
      5401      5413      5416      5418      5401      5413      5416      5419
      5402      5401      5413      5414      5402      5401      5413      5415
      5402      5401      5413      5416      5403      5401      5413      5414
      5403      5401      5413      5415      5403      5401      5413      5416
      5404      5407      5408      5409      5404      5407      5408      5410
      5405      5404      5407      5408      5406      5404      5407      5408
      5407      5408      5410      5411      5407      5408      5410      5412
      5407      5408      5410      5458      5408      5410      5458      5459
      5408      5410      5458      5460      5408      5410      5458      5461
      5409      5408      5410      5411      5409      5408      5410      5412
      5409      5408      5410      5458      5410      5458      5461      5462
      5410      5458      5461      5463      5410      5458      5461      5464
      5411      5410      5458      5459      5411      5410      5458      5460
      5411      5410      5458      5461      5412      5410      5458      5459
      5412      5410      5458      5460      5412      5410      5458      5461
      5413      5416      5419      5420      5413      5416      5419      5421
      5413      5416      5419      5422      5414      5413      5416      5417
      5414      5413      5416      5418      5414      5413      5416      5419
      5415      5413      5416      5417      5415      5413      5416      5418
      5415      5413      5416      5419      5416      5419      5422      5423
      5416      5419      5422      5424      5416      5419      5422      5425
      5417      5416      5419      5420      5417      5416      5419      5421
      5417      5416      5419      5422      5418      5416      5419      5420
      5418      5416      5419      5421      5418      5416      5419      5422
      5419      5422      5425      5426      5419      5422      5425      5427
      5419      5422      5425      5428      5420      5419      5422      5423
      5420      5419      5422      5424      5420      5419      5422      5425
      5421      5419      5422      5423      5421      5419      5422      5424
      5421      5419      5422      5425      5422      5425      5428      5429
      5422      5425      5428      5430      5422      5425      5428      5431
      5423      5422      5425      5426      5423      5422      5425      5427
      5423      5422      5425      5428      5424      5422      5425      5426
      5424      5422      5425      5427      5424      5422      5425      5428
      5425      5428      5431      5432      5425      5428      5431      5433
      5426      5425      5428      5429      5426      5425      5428      5430
      5426      5425      5428      5431      5427      5425      5428      5429
      5427      5425      5428      5430      5427      5425      5428      5431
      5428      5431      5433      5434      5428      5431      5433      5435
      5429      5428      5431      5432      5429      5428      5431      5433
      5430      5428      5431      5432      5430      5428      5431      5433
      5431      5433      5435      5436      5431      5433      5435      5437
      5431      5433      5435      5438      5432      5431      5433      5434
      5432      5431      5433      5435      5433      5435      5438      5439
      5433      5435      5438      5440      5434      5433      5435      5436
      5434      5433      5435      5437      5434      5433      5435      5438
      5435      5438      5440      5441      5435      5438      5440      5442
      5436      5435      5438      5439      5436      5435      5438      5440
      5437      5435      5438      5439      5437      5435      5438      5440
      5438      5440      5442      5443      5438      5440      5442      5444
      5438      5440      5442      5445      5439      5438      5440      5441
      5439      5438      5440      5442      5440      5442      5445      5446
      5440      5442      5445      5447      5440      5442      5445      5448
      5441      5440      5442      5443      5441      5440      5442      5444
      5441      5440      5442      5445      5442      5445      5448      5449
      5442      5445      5448      5450      5442      5445      5448      5451
      5443      5442      5445      5446      5443      5442      5445      5447
      5443      5442      5445      5448      5444      5442      5445      5446
      5444      5442      5445      5447      5444      5442      5445      5448
      5445      5448      5451      5452      5445      5448      5451      5453
      5445      5448      5451      5454      5446      5445      5448      5449
      5446      5445      5448      5450      5446      5445      5448      5451
      5447      5445      5448      5449      5447      5445      5448      5450
      5447      5445      5448      5451      5448      5451      5454      5455
      5448      5451      5454      5456      5448      5451      5454      5457
      5449      5448      5451      5452      5449      5448      5451      5453
      5449      5448      5451      5454      5450      5448      5451      5452
      5450      5448      5451      5453      5450      5448      5451      5454
      5452      5451      5454      5455      5452      5451      5454      5456
      5452      5451      5454      5457      5453      5451      5454      5455
      5453      5451      5454      5456      5453      5451      5454      5457
      5458      5461      5464      5465      5458      5461      5464      5466
      5458      5461      5464      5467      5459      5458      5461      5462
      5459      5458      5461      5463      5459      5458      5461      5464
      5460      5458      5461      5462      5460      5458      5461      5463
      5460      5458      5461      5464      5461      5464      5467      5468
      5461      5464      5467      5469      5461      5464      5467      5470
      5462      5461      5464      5465      5462      5461      5464      5466
      5462      5461      5464      5467      5463      5461      5464      5465
      5463      5461      5464      5466      5463      5461      5464      5467
      5464      5467      5470      5471      5464      5467      5470      5472
      5464      5467      5470      5473      5465      5464      5467      5468
      5465      5464      5467      5469      5465      5464      5467      5470
      5466      5464      5467      5468      5466      5464      5467      5469
      5466      5464      5467      5470      5467      5470      5473      5474
      5467      5470      5473      5475      5467      5470      5473      5476
      5468      5467      5470      5471      5468      5467      5470      5472
      5468      5467      5470      5473      5469      5467      5470      5471
      5469      5467      5470      5472      5469      5467      5470      5473
      5470      5473      5476      5477      5470      5473      5476      5478
      5470      5473      5476      5479      5471      5470      5473      5474
      5471      5470      5473      5475      5471      5470      5473      5476
      5472      5470      5473      5474      5472      5470      5473      5475
      5472      5470      5473      5476      5473      5476      5479      5480
      5473      5476      5479      5481      5473      5476      5479      5482
      5474      5473      5476      5477      5474      5473      5476      5478
      5474      5473      5476      5479      5475      5473      5476      5477
      5475      5473      5476      5478      5475      5473      5476      5479
      5476      5479      5482      5483      5476      5479      5482      5484
      5476      5479      5482      5485      5477      5476      5479      5480
      5477      5476      5479      5481      5477      5476      5479      5482
      5478      5476      5479      5480      5478      5476      5479      5481
      5478      5476      5479      5482      5479      5482      5485      5486
      5479      5482      5485      5487      5479      5482      5485      5488
      5480      5479      5482      5483      5480      5479      5482      5484
      5480      5479      5482      5485      5481      5479      5482      5483
      5481      5479      5482      5484      5481      5479      5482      5485
      5482      5485      5488      5489      5482      5485      5488      5490
      5482      5485      5488      5491      5483      5482      5485      5486
      5483      5482      5485      5487      5483      5482      5485      5488
      5484      5482      5485      5486      5484      5482      5485      5487
      5484      5482      5485      5488      5485      5488      5491      5492
      5485      5488      5491      5493      5485      5488      5491      5494
      5486      5485      5488      5489      5486      5485      5488      5490
      5486      5485      5488      5491      5487      5485      5488      5489
      5487      5485      5488      5490      5487      5485      5488      5491
      5488      5491      5494      5495      5488      5491      5494      5496
      5488      5491      5494      5497      5489      5488      5491      5492
      5489      5488      5491      5493      5489      5488      5491      5494
      5490      5488      5491      5492      5490      5488      5491      5493
      5490      5488      5491      5494      5491      5494      5497      5498
      5491      5494      5497      5499      5491      5494      5497      5500
      5492      5491      5494      5495      5492      5491      5494      5496
      5492      5491      5494      5497      5493      5491      5494      5495
      5493      5491      5494      5496      5493      5491      5494      5497
      5494      5497      5500      5501      5494      5497      5500      5502
      5494      5497      5500      5503      5495      5494      5497      5498
      5495      5494      5497      5499      5495      5494      5497      5500
      5496      5494      5497      5498      5496      5494      5497      5499
      5496      5494      5497      5500      5497      5500      5503      5504
      5497      5500      5503      5505      5497      5500      5503      5506
      5498      5497      5500      5501      5498      5497      5500      5502
      5498      5497      5500      5503      5499      5497      5500      5501
      5499      5497      5500      5502      5499      5497      5500      5503
      5501      5500      5503      5504      5501      5500      5503      5505
      5501      5500      5503      5506      5502      5500      5503      5504
      5502      5500      5503      5505      5502      5500      5503      5506
      5507      5511      5514      5515      5507      5511      5514      5545
      5507      5553      5550      5545      5507      5553      5550      5551
      5507      5553      5550      5552      5508      5507      5509      5510
      5508      5507      5511      5512      5508      5507      5511      5513
      5508      5507      5511      5514      5508      5507      5553      5550
      5508      5507      5553      5554      5508      5507      5553      5555
      5509      5507      5511      5512      5509      5507      5511      5513
      5509      5507      5511      5514      5509      5507      5553      5550
      5509      5507      5553      5554      5509      5507      5553      5555
      5510      5509      5507      5511      5510      5509      5507      5553
      5511      5507      5553      5550      5511      5507      5553      5554
      5511      5507      5553      5555      5511      5514      5515      5516
      5511      5514      5515      5517      5511      5514      5545      5543
      5511      5514      5545      5546      5511      5514      5545      5550
      5512      5511      5507      5553      5512      5511      5514      5515
      5512      5511      5514      5545      5513      5511      5507      5553
      5513      5511      5514      5515      5513      5511      5514      5545
      5514      5511      5507      5553      5514      5515      5517      5518
      5514      5515      5517      5519      5514      5515      5517      5520
      5514      5545      5543      5520      5514      5545      5543      5540
      5514      5545      5543      5544      5514      5545      5546      5547
      5514      5545      5546      5548      5514      5545      5546      5549
      5514      5545      5550      5551      5514      5545      5550      5552
      5514      5545      5550      5553      5515      5514      5545      5543
      5515      5514      5545      5546      5515      5514      5545      5550
      5515      5517      5520      5521      5515      5517      5520      5522
      5515      5517      5520      5543      5516      5515      5514      5545
      5516      5515      5517      5518      5516      5515      5517      5519
      5516      5515      5517      5520      5517      5515      5514      5545
      5517      5520      5522      5523      5517      5520      5522      5524
      5517      5520      5522      5532      5517      5520      5543      5540
      5517      5520      5543      5544      5517      5520      5543      5545
      5518      5517      5520      5521      5518      5517      5520      5522
      5518      5517      5520      5543      5519      5517      5520      5521
      5519      5517      5520      5522      5519      5517      5520      5543
      5520      5522      5524      5525      5520      5522      5524      5526
      5520      5522      5524      5527      5520      5522      5532      5530
      5520      5522      5532      5533      5520      5522      5532      5537
      5520      5543      5540      5537      5520      5543      5540      5541
      5520      5543      5540      5542      5520      5543      5545      5546
      5520      5543      5545      5550      5521      5520      5522      5523
      5521      5520      5522      5524      5521      5520      5522      5532
      5521      5520      5543      5540      5521      5520      5543      5544
      5521      5520      5543      5545      5522      5520      5543      5540
      5522      5520      5543      5544      5522      5520      5543      5545
      5522      5524      5527      5528      5522      5524      5527      5529
      5522      5524      5527      5530      5522      5532      5530      5527
      5522      5532      5530      5531      5522      5532      5530      5556
      5522      5532      5533      5534      5522      5532      5533      5535
      5522      5532      5533      5536      5522      5532      5537      5538
      5522      5532      5537      5539      5522      5532      5537      5540
      5523      5522      5520      5543      5523      5522      5524      5525
      5523      5522      5524      5526      5523      5522      5524      5527
      5523      5522      5532      5530      5523      5522      5532      5533
      5523      5522      5532      5537      5524      5522      5520      5543
      5524      5522      5532      5530      5524      5522      5532      5533
      5524      5522      5532      5537      5524      5527      5530      5531
      5524      5527      5530      5532      5524      5527      5530      5556
      5525      5524      5522      5532      5525      5524      5527      5528
      5525      5524      5527      5529      5525      5524      5527      5530
      5526      5524      5522      5532      5526      5524      5527      5528
      5526      5524      5527      5529      5526      5524      5527      5530
      5527      5524      5522      5532      5527      5530      5532      5533
      5527      5530      5532      5537      5527      5530      5556      5557
      5527      5530      5556      5558      5527      5530      5556      5562
      5528      5527      5530      5531      5528      5527      5530      5532
      5528      5527      5530      5556      5529      5527      5530      5531
      5529      5527      5530      5532      5529      5527      5530      5556
      5530      5532      5533      5534      5530      5532      5533      5535
      5530      5532      5533      5536      5530      5532      5537      5538
      5530      5532      5537      5539      5530      5532      5537      5540
      5530      5556      5558      5559      5530      5556      5558      5560
      5530      5556      5558      5561      5530      5556      5562      5563
      5530      5556      5562      5564      5530      5556      5562      5565
      5531      5530      5532      5533      5531      5530      5532      5537
      5531      5530      5556      5557      5531      5530      5556      5558
      5531      5530      5556      5562      5532      5522      5520      5543
      5532      5530      5556      5557      5532      5530      5556      5558
      5532      5530      5556      5562      5532      5537      5540      5541
      5532      5537      5540      5542      5532      5537      5540      5543
      5533      5532      5530      5556      5533      5532      5537      5538
      5533      5532      5537      5539      5533      5532      5537      5540
      5534      5533      5532      5537      5535      5533      5532      5537
      5536      5533      5532      5537      5537      5532      5530      5556
      5537      5540      5543      5544      5537      5540      5543      5545
      5538      5537      5540      5541      5538      5537      5540      5542
      5538      5537      5540      5543      5539      5537      5540      5541
      5539      5537      5540      5542      5539      5537      5540      5543
      5540      5543      5545      5546      5540      5543      5545      5550
      5541      5540      5543      5544      5541      5540      5543      5545
      5542      5540      5543      5544      5542      5540      5543      5545
      5543      5545      5546      5547      5543      5545      5546      5548
      5543      5545      5546      5549      5543      5545      5550      5551
      5543      5545      5550      5552      5543      5545      5550      5553
      5544      5543      5545      5546      5544      5543      5545      5550
      5545      5550      5553      5554      5545      5550      5553      5555
      5546      5545      5550      5551      5546      5545      5550      5552
      5546      5545      5550      5553      5547      5546      5545      5550
      5548      5546      5545      5550      5549      5546      5545      5550
      5551      5550      5553      5554      5551      5550      5553      5555
      5552      5550      5553      5554      5552      5550      5553      5555
      5556      5562      5565      5566      5556      5562      5565      5567
      5556      5562      5565      5568      5557      5556      5558      5559
      5557      5556      5558      5560      5557      5556      5558      5561
      5557      5556      5562      5563      5557      5556      5562      5564
      5557      5556      5562      5565      5558      5556      5562      5563
      5558      5556      5562      5564      5558      5556      5562      5565
      5559      5558      5556      5562      5560      5558      5556      5562
      5561      5558      5556      5562      5562      5565      5568      5569
      5562      5565      5568      5570      5562      5565      5568      5571
      5563      5562      5565      5566      5563      5562      5565      5567
      5563      5562      5565      5568      5564      5562      5565      5566
      5564      5562      5565      5567      5564      5562      5565      5568
      5565      5568      5571      5572      5565      5568      5571      5573
      5565      5568      5571      5577      5566      5565      5568      5569
      5566      5565      5568      5570      5566      5565      5568      5571
      5567      5565      5568      5569      5567      5565      5568      5570
      5567      5565      5568      5571      5568      5571      5573      5574
      5568      5571      5573      5575      5568      5571      5573      5576
      5568      5571      5577      5578      5568      5571      5577      5579
      5568      5571      5577      5580      5569      5568      5571      5572
      5569      5568      5571      5573      5569      5568      5571      5577
      5570      5568      5571      5572      5570      5568      5571      5573
      5570      5568      5571      5577      5572      5571      5573      5574
      5572      5571      5573      5575      5572      5571      5573      5576
      5572      5571      5577      5578      5572      5571      5577      5579
      5572      5571      5577      5580      5573      5571      5577      5578
      5573      5571      5577      5579      5573      5571      5577      5580
      5574      5573      5571      5577      5575      5573      5571      5577
      5576      5573      5571      5577      5581      5594      5597      5598
      5581      5594      5597      5599      5581      5594      5597      5604
      5582      5581      5586      5587      5582      5581      5586      5588
      5582      5581      5586      5589      5582      5581      5590      5591
      5582      5581      5590      5592      5582      5581      5590      5593
      5582      5581      5594      5595      5582      5581      5594      5596
      5582      5581      5594      5597      5583      5582      5581      5586
      5583      5582      5581      5590      5583      5582      5581      5594
      5584      5582      5581      5586      5584      5582      5581      5590
      5584      5582      5581      5594      5585      5582      5581      5586
      5585      5582      5581      5590      5585      5582      5581      5594
      5586      5581      5590      5591      5586      5581      5590      5592
      5586      5581      5590      5593      5586      5581      5594      5595
      5586      5581      5594      5596      5586      5581      5594      5597
      5587      5586      5581      5590      5587      5586      5581      5594
      5588      5586      5581      5590      5588      5586      5581      5594
      5589      5586      5581      5590      5589      5586      5581      5594
      5590      5581      5594      5595      5590      5581      5594      5596
      5590      5581      5594      5597      5591      5590      5581      5594
      5592      5590      5581      5594      5593      5590      5581      5594
      5594      5597      5604      5600      5595      5594      5597      5598
      5595      5594      5597      5599      5595      5594      5597      5604
      5596      5594      5597      5598      5596      5594      5597      5599
      5596      5594      5597      5604      5597      5604      5600      5601
      5597      5604      5600      5602      5597      5604      5600      5603
      5598      5597      5604      5600      5599      5597      5604      5600
      5600      5603      5605      5606      5600      5603      5605      5607
      5600      5603      5605      5610      5601      5600      5603      5605
      5602      5600      5603      5605      5603      5605      5610      5608
      5603      5605      5610      5611      5603      5605      5610      5612
      5604      5600      5603      5605      5605      5610      5608      5609
      5605      5610      5608      5660      5605      5610      5612      5613
      5605      5610      5612      5614      5605      5610      5612      5616
      5606      5605      5610      5608      5606      5605      5610      5611
      5606      5605      5610      5612      5607      5605      5610      5608
      5607      5605      5610      5611      5607      5605      5610      5612
      5608      5610      5612      5613      5608      5610      5612      5614
      5608      5610      5612      5616      5608      5660      5662      5663
      5608      5660      5662      5664      5608      5660      5662      5665
      5609      5608      5610      5611      5609      5608      5610      5612
      5609      5608      5660      5661      5609      5608      5660      5662
      5610      5608      5660      5661      5610      5608      5660      5662
      5610      5612      5614      5615      5610      5612      5616      5617
      5610      5612      5616      5618      5611      5610      5608      5660
      5611      5610      5612      5613      5611      5610      5612      5614
      5611      5610      5612      5616      5612      5610      5608      5660
      5612      5616      5618      5619      5612      5616      5618      5620
      5613      5612      5614      5615      5613      5612      5616      5617
      5613      5612      5616      5618      5614      5612      5616      5617
      5614      5612      5616      5618      5615      5614      5612      5616
      5616      5618      5620      5621      5616      5618      5620      5622
      5616      5618      5620      5623      5617      5616      5618      5619
      5617      5616      5618      5620      5618      5620      5623      5624
      5618      5620      5623      5625      5618      5620      5623      5626
      5619      5618      5620      5621      5619      5618      5620      5622
      5619      5618      5620      5623      5620      5623      5626      5627
      5620      5623      5626      5628      5620      5623      5626      5629
      5621      5620      5623      5624      5621      5620      5623      5625
      5621      5620      5623      5626      5622      5620      5623      5624
      5622      5620      5623      5625      5622      5620      5623      5626
      5623      5626      5629      5630      5623      5626      5629      5631
      5623      5626      5629      5632      5624      5623      5626      5627
      5624      5623      5626      5628      5624      5623      5626      5629
      5625      5623      5626      5627      5625      5623      5626      5628
      5625      5623      5626      5629      5626      5629      5632      5633
      5626      5629      5632      5634      5626      5629      5632      5635
      5627      5626      5629      5630      5627      5626      5629      5631
      5627      5626      5629      5632      5628      5626      5629      5630
      5628      5626      5629      5631      5628      5626      5629      5632
      5629      5632      5635      5636      5629      5632      5635      5637
      5629      5632      5635      5638      5630      5629      5632      5633
      5630      5629      5632      5634      5630      5629      5632      5635
      5631      5629      5632      5633      5631      5629      5632      5634
      5631      5629      5632      5635      5632      5635      5638      5639
      5632      5635      5638      5640      5632      5635      5638      5641
      5633      5632      5635      5636      5633      5632      5635      5637
      5633      5632      5635      5638      5634      5632      5635      5636
      5634      5632      5635      5637      5634      5632      5635      5638
      5635      5638      5641      5642      5635      5638      5641      5643
      5635      5638      5641      5644      5636      5635      5638      5639
      5636      5635      5638      5640      5636      5635      5638      5641
      5637      5635      5638      5639      5637      5635      5638      5640
      5637      5635      5638      5641      5638      5641      5644      5645
      5638      5641      5644      5646      5638      5641      5644      5647
      5639      5638      5641      5642      5639      5638      5641      5643
      5639      5638      5641      5644      5640      5638      5641      5642
      5640      5638      5641      5643      5640      5638      5641      5644
      5641      5644      5647      5648      5641      5644      5647      5649
      5641      5644      5647      5650      5642      5641      5644      5645
      5642      5641      5644      5646      5642      5641      5644      5647
      5643      5641      5644      5645      5643      5641      5644      5646
      5643      5641      5644      5647      5644      5647      5650      5651
      5644      5647      5650      5652      5644      5647      5650      5653
      5645      5644      5647      5648      5645      5644      5647      5649
      5645      5644      5647      5650      5646      5644      5647      5648
      5646      5644      5647      5649      5646      5644      5647      5650
      5647      5650      5653      5654      5647      5650      5653      5655
      5647      5650      5653      5656      5648      5647      5650      5651
      5648      5647      5650      5652      5648      5647      5650      5653
      5649      5647      5650      5651      5649      5647      5650      5652
      5649      5647      5650      5653      5650      5653      5656      5657
      5650      5653      5656      5658      5650      5653      5656      5659
      5651      5650      5653      5654      5651      5650      5653      5655
      5651      5650      5653      5656      5652      5650      5653      5654
      5652      5650      5653      5655      5652      5650      5653      5656
      5654      5653      5656      5657      5654      5653      5656      5658
      5654      5653      5656      5659      5655      5653      5656      5657
      5655      5653      5656      5658      5655      5653      5656      5659
      5660      5662      5665      5666      5660      5662      5665      5667
      5660      5662      5665      5668      5661      5660      5662      5663
      5661      5660      5662      5664      5661      5660      5662      5665
      5662      5665      5668      5669      5662      5665      5668      5670
      5662      5665      5668      5671      5663      5662      5665      5666
      5663      5662      5665      5667      5663      5662      5665      5668
      5664      5662      5665      5666      5664      5662      5665      5667
      5664      5662      5665      5668      5665      5668      5671      5672
      5665      5668      5671      5673      5665      5668      5671      5674
      5666      5665      5668      5669      5666      5665      5668      5670
      5666      5665      5668      5671      5667      5665      5668      5669
      5667      5665      5668      5670      5667      5665      5668      5671
      5668      5671      5674      5675      5668      5671      5674      5676
      5668      5671      5674      5677      5669      5668      5671      5672
      5669      5668      5671      5673      5669      5668      5671      5674
      5670      5668      5671      5672      5670      5668      5671      5673
      5670      5668      5671      5674      5671      5674      5677      5678
      5671      5674      5677      5679      5671      5674      5677      5680
      5672      5671      5674      5675      5672      5671      5674      5676
      5672      5671      5674      5677      5673      5671      5674      5675
      5673      5671      5674      5676      5673      5671      5674      5677
      5674      5677      5680      5681      5674      5677      5680      5682
      5674      5677      5680      5683      5675      5674      5677      5678
      5675      5674      5677      5679      5675      5674      5677      5680
      5676      5674      5677      5678      5676      5674      5677      5679
      5676      5674      5677      5680      5677      5680      5683      5684
      5677      5680      5683      5685      5678      5677      5680      5681
      5678      5677      5680      5682      5678      5677      5680      5683
      5679      5677      5680      5681      5679      5677      5680      5682
      5679      5677      5680      5683      5680      5683      5685      5686
      5680      5683      5685      5687      5681      5680      5683      5684
      5681      5680      5683      5685      5682      5680      5683      5684
      5682      5680      5683      5685      5683      5685      5687      5688
      5683      5685      5687      5689      5683      5685      5687      5690
      5684      5683      5685      5686      5684      5683      5685      5687
      5685      5687      5690      5691      5685      5687      5690      5692
      5685      5687      5690      5693      5686      5685      5687      5688
      5686      5685      5687      5689      5686      5685      5687      5690
      5687      5690      5693      5694      5687      5690      5693      5695
      5687      5690      5693      5696      5688      5687      5690      5691
      5688      5687      5690      5692      5688      5687      5690      5693
      5689      5687      5690      5691      5689      5687      5690      5692
      5689      5687      5690      5693      5690      5693      5696      5697
      5690      5693      5696      5698      5690      5693      5696      5699
      5691      5690      5693      5694      5691      5690      5693      5695
      5691      5690      5693      5696      5692      5690      5693      5694
      5692      5690      5693      5695      5692      5690      5693      5696
      5693      5696      5699      5700      5693      5696      5699      5701
      5693      5696      5699      5702      5694      5693      5696      5697
      5694      5693      5696      5698      5694      5693      5696      5699
      5695      5693      5696      5697      5695      5693      5696      5698
      5695      5693      5696      5699      5696      5699      5702      5703
      5696      5699      5702      5704      5696      5699      5702      5705
      5697      5696      5699      5700      5697      5696      5699      5701
      5697      5696      5699      5702      5698      5696      5699      5700
      5698      5696      5699      5701      5698      5696      5699      5702
      5699      5702      5705      5706      5699      5702      5705      5707
      5699      5702      5705      5708      5700      5699      5702      5703
      5700      5699      5702      5704      5700      5699      5702      5705
      5701      5699      5702      5703      5701      5699      5702      5704
      5701      5699      5702      5705      5702      5705      5708      5709
      5702      5705      5708      5710      5702      5705      5708      5711
      5703      5702      5705      5706      5703      5702      5705      5707
      5703      5702      5705      5708      5704      5702      5705      5706
      5704      5702      5705      5707      5704      5702      5705      5708
      5706      5705      5708      5709      5706      5705      5708      5710
      5706      5705      5708      5711      5707      5705      5708      5709
      5707      5705      5708      5710      5707      5705      5708      5711
      5712      5716      5719      5720      5712      5716      5719      5750
      5712      5758      5755      5750      5712      5758      5755      5756
      5712      5758      5755      5757      5713      5712      5714      5715
      5713      5712      5716      5717      5713      5712      5716      5718
      5713      5712      5716      5719      5713      5712      5758      5755
      5713      5712      5758      5759      5713      5712      5758      5760
      5714      5712      5716      5717      5714      5712      5716      5718
      5714      5712      5716      5719      5714      5712      5758      5755
      5714      5712      5758      5759      5714      5712      5758      5760
      5715      5714      5712      5716      5715      5714      5712      5758
      5716      5712      5758      5755      5716      5712      5758      5759
      5716      5712      5758      5760      5716      5719      5720      5721
      5716      5719      5720      5722      5716      5719      5750      5748
      5716      5719      5750      5751      5716      5719      5750      5755
      5717      5716      5712      5758      5717      5716      5719      5720
      5717      5716      5719      5750      5718      5716      5712      5758
      5718      5716      5719      5720      5718      5716      5719      5750
      5719      5716      5712      5758      5719      5720      5722      5723
      5719      5720      5722      5724      5719      5720      5722      5725
      5719      5750      5748      5725      5719      5750      5748      5745
      5719      5750      5748      5749      5719      5750      5751      5752
      5719      5750      5751      5753      5719      5750      5751      5754
      5719      5750      5755      5756      5719      5750      5755      5757
      5719      5750      5755      5758      5720      5719      5750      5748
      5720      5719      5750      5751      5720      5719      5750      5755
      5720      5722      5725      5726      5720      5722      5725      5727
      5720      5722      5725      5748      5721      5720      5719      5750
      5721      5720      5722      5723      5721      5720      5722      5724
      5721      5720      5722      5725      5722      5720      5719      5750
      5722      5725      5727      5728      5722      5725      5727      5729
      5722      5725      5727      5737      5722      5725      5748      5745
      5722      5725      5748      5749      5722      5725      5748      5750
      5723      5722      5725      5726      5723      5722      5725      5727
      5723      5722      5725      5748      5724      5722      5725      5726
      5724      5722      5725      5727      5724      5722      5725      5748
      5725      5727      5729      5730      5725      5727      5729      5731
      5725      5727      5729      5732      5725      5727      5737      5735
      5725      5727      5737      5738      5725      5727      5737      5742
      5725      5748      5745      5742      5725      5748      5745      5746
      5725      5748      5745      5747      5725      5748      5750      5751
      5725      5748      5750      5755      5726      5725      5727      5728
      5726      5725      5727      5729      5726      5725      5727      5737
      5726      5725      5748      5745      5726      5725      5748      5749
      5726      5725      5748      5750      5727      5725      5748      5745
      5727      5725      5748      5749      5727      5725      5748      5750
      5727      5729      5732      5733      5727      5729      5732      5734
      5727      5729      5732      5735      5727      5737      5735      5732
      5727      5737      5735      5736      5727      5737      5735      5761
      5727      5737      5738      5739      5727      5737      5738      5740
      5727      5737      5738      5741      5727      5737      5742      5743
      5727      5737      5742      5744      5727      5737      5742      5745
      5728      5727      5725      5748      5728      5727      5729      5730
      5728      5727      5729      5731      5728      5727      5729      5732
      5728      5727      5737      5735      5728      5727      5737      5738
      5728      5727      5737      5742      5729      5727      5725      5748
      5729      5727      5737      5735      5729      5727      5737      5738
      5729      5727      5737      5742      5729      5732      5735      5736
      5729      5732      5735      5737      5729      5732      5735      5761
      5730      5729      5727      5737      5730      5729      5732      5733
      5730      5729      5732      5734      5730      5729      5732      5735
      5731      5729      5727      5737      5731      5729      5732      5733
      5731      5729      5732      5734      5731      5729      5732      5735
      5732      5729      5727      5737      5732      5735      5737      5738
      5732      5735      5737      5742      5732      5735      5761      5762
      5732      5735      5761      5763      5732      5735      5761      5767
      5733      5732      5735      5736      5733      5732      5735      5737
      5733      5732      5735      5761      5734      5732      5735      5736
      5734      5732      5735      5737      5734      5732      5735      5761
      5735      5737      5738      5739      5735      5737      5738      5740
      5735      5737      5738      5741      5735      5737      5742      5743
      5735      5737      5742      5744      5735      5737      5742      5745
      5735      5761      5763      5764      5735      5761      5763      5765
      5735      5761      5763      5766      5735      5761      5767      5768
      5735      5761      5767      5769      5735      5761      5767      5770
      5736      5735      5737      5738      5736      5735      5737      5742
      5736      5735      5761      5762      5736      5735      5761      5763
      5736      5735      5761      5767      5737      5727      5725      5748
      5737      5735      5761      5762      5737      5735      5761      5763
      5737      5735      5761      5767      5737      5742      5745      5746
      5737      5742      5745      5747      5737      5742      5745      5748
      5738      5737      5735      5761      5738      5737      5742      5743
      5738      5737      5742      5744      5738      5737      5742      5745
      5739      5738      5737      5742      5740      5738      5737      5742
      5741      5738      5737      5742      5742      5737      5735      5761
      5742      5745      5748      5749      5742      5745      5748      5750
      5743      5742      5745      5746      5743      5742      5745      5747
      5743      5742      5745      5748      5744      5742      5745      5746
      5744      5742      5745      5747      5744      5742      5745      5748
      5745      5748      5750      5751      5745      5748      5750      5755
      5746      5745      5748      5749      5746      5745      5748      5750
      5747      5745      5748      5749      5747      5745      5748      5750
      5748      5750      5751      5752      5748      5750      5751      5753
      5748      5750      5751      5754      5748      5750      5755      5756
      5748      5750      5755      5757      5748      5750      5755      5758
      5749      5748      5750      5751      5749      5748      5750      5755
      5750      5755      5758      5759      5750      5755      5758      5760
      5751      5750      5755      5756      5751      5750      5755      5757
      5751      5750      5755      5758      5752      5751      5750      5755
      5753      5751      5750      5755      5754      5751      5750      5755
      5756      5755      5758      5759      5756      5755      5758      5760
      5757      5755      5758      5759      5757      5755      5758      5760
      5761      5767      5770      5771      5761      5767      5770      5772
      5761      5767      5770      5773      5762      5761      5763      5764
      5762      5761      5763      5765      5762      5761      5763      5766
      5762      5761      5767      5768      5762      5761      5767      5769
      5762      5761      5767      5770      5763      5761      5767      5768
      5763      5761      5767      5769      5763      5761      5767      5770
      5764      5763      5761      5767      5765      5763      5761      5767
      5766      5763      5761      5767      5767      5770      5773      5774
      5767      5770      5773      5775      5767      5770      5773      5776
      5768      5767      5770      5771      5768      5767      5770      5772
      5768      5767      5770      5773      5769      5767      5770      5771
      5769      5767      5770      5772      5769      5767      5770      5773
      5770      5773      5776      5777      5770      5773      5776      5778
      5770      5773      5776      5782      5771      5770      5773      5774
      5771      5770      5773      5775      5771      5770      5773      5776
      5772      5770      5773      5774      5772      5770      5773      5775
      5772      5770      5773      5776      5773      5776      5778      5779
      5773      5776      5778      5780      5773      5776      5778      5781
      5773      5776      5782      5783      5773      5776      5782      5784
      5773      5776      5782      5785      5774      5773      5776      5777
      5774      5773      5776      5778      5774      5773      5776      5782
      5775      5773      5776      5777      5775      5773      5776      5778
      5775      5773      5776      5782      5777      5776      5778      5779
      5777      5776      5778      5780      5777      5776      5778      5781
      5777      5776      5782      5783      5777      5776      5782      5784
      5777      5776      5782      5785      5778      5776      5782      5783
      5778      5776      5782      5784      5778      5776      5782      5785
      5779      5778      5776      5782      5780      5778      5776      5782
      5781      5778      5776      5782      5786      5799      5802      5803
      5786      5799      5802      5804      5786      5799      5802      5809
      5787      5786      5791      5792      5787      5786      5791      5793
      5787      5786      5791      5794      5787      5786      5795      5796
      5787      5786      5795      5797      5787      5786      5795      5798
      5787      5786      5799      5800      5787      5786      5799      5801
      5787      5786      5799      5802      5788      5787      5786      5791
      5788      5787      5786      5795      5788      5787      5786      5799
      5789      5787      5786      5791      5789      5787      5786      5795
      5789      5787      5786      5799      5790      5787      5786      5791
      5790      5787      5786      5795      5790      5787      5786      5799
      5791      5786      5795      5796      5791      5786      5795      5797
      5791      5786      5795      5798      5791      5786      5799      5800
      5791      5786      5799      5801      5791      5786      5799      5802
      5792      5791      5786      5795      5792      5791      5786      5799
      5793      5791      5786      5795      5793      5791      5786      5799
      5794      5791      5786      5795      5794      5791      5786      5799
      5795      5786      5799      5800      5795      5786      5799      5801
      5795      5786      5799      5802      5796      5795      5786      5799
      5797      5795      5786      5799      5798      5795      5786      5799
      5799      5802      5809      5805      5800      5799      5802      5803
      5800      5799      5802      5804      5800      5799      5802      5809
      5801      5799      5802      5803      5801      5799      5802      5804
      5801      5799      5802      5809      5802      5809      5805      5806
      5802      5809      5805      5807      5802      5809      5805      5808
      5803      5802      5809      5805      5804      5802      5809      5805
      5805      5808      5810      5811      5805      5808      5810      5812
      5805      5808      5810      5815      5806      5805      5808      5810
      5807      5805      5808      5810      5808      5810      5815      5813
      5808      5810      5815      5816      5808      5810      5815      5817
      5809      5805      5808      5810      5810      5815      5813      5814
      5810      5815      5813      5865      5810      5815      5817      5818
      5810      5815      5817      5819      5810      5815      5817      5821
      5811      5810      5815      5813      5811      5810      5815      5816
      5811      5810      5815      5817      5812      5810      5815      5813
      5812      5810      5815      5816      5812      5810      5815      5817
      5813      5815      5817      5818      5813      5815      5817      5819
      5813      5815      5817      5821      5813      5865      5867      5868
      5813      5865      5867      5869      5813      5865      5867      5870
      5814      5813      5815      5816      5814      5813      5815      5817
      5814      5813      5865      5866      5814      5813      5865      5867
      5815      5813      5865      5866      5815      5813      5865      5867
      5815      5817      5819      5820      5815      5817      5821      5822
      5815      5817      5821      5823      5816      5815      5813      5865
      5816      5815      5817      5818      5816      5815      5817      5819
      5816      5815      5817      5821      5817      5815      5813      5865
      5817      5821      5823      5824      5817      5821      5823      5825
      5818      5817      5819      5820      5818      5817      5821      5822
      5818      5817      5821      5823      5819      5817      5821      5822
      5819      5817      5821      5823      5820      5819      5817      5821
      5821      5823      5825      5826      5821      5823      5825      5827
      5821      5823      5825      5828      5822      5821      5823      5824
      5822      5821      5823      5825      5823      5825      5828      5829
      5823      5825      5828      5830      5823      5825      5828      5831
      5824      5823      5825      5826      5824      5823      5825      5827
      5824      5823      5825      5828      5825      5828      5831      5832
      5825      5828      5831      5833      5825      5828      5831      5834
      5826      5825      5828      5829      5826      5825      5828      5830
      5826      5825      5828      5831      5827      5825      5828      5829
      5827      5825      5828      5830      5827      5825      5828      5831
      5828      5831      5834      5835      5828      5831      5834      5836
      5828      5831      5834      5837      5829      5828      5831      5832
      5829      5828      5831      5833      5829      5828      5831      5834
      5830      5828      5831      5832      5830      5828      5831      5833
      5830      5828      5831      5834      5831      5834      5837      5838
      5831      5834      5837      5839      5831      5834      5837      5840
      5832      5831      5834      5835      5832      5831      5834      5836
      5832      5831      5834      5837      5833      5831      5834      5835
      5833      5831      5834      5836      5833      5831      5834      5837
      5834      5837      5840      5841      5834      5837      5840      5842
      5834      5837      5840      5843      5835      5834      5837      5838
      5835      5834      5837      5839      5835      5834      5837      5840
      5836      5834      5837      5838      5836      5834      5837      5839
      5836      5834      5837      5840      5837      5840      5843      5844
      5837      5840      5843      5845      5837      5840      5843      5846
      5838      5837      5840      5841      5838      5837      5840      5842
      5838      5837      5840      5843      5839      5837      5840      5841
      5839      5837      5840      5842      5839      5837      5840      5843
      5840      5843      5846      5847      5840      5843      5846      5848
      5840      5843      5846      5849      5841      5840      5843      5844
      5841      5840      5843      5845      5841      5840      5843      5846
      5842      5840      5843      5844      5842      5840      5843      5845
      5842      5840      5843      5846      5843      5846      5849      5850
      5843      5846      5849      5851      5843      5846      5849      5852
      5844      5843      5846      5847      5844      5843      5846      5848
      5844      5843      5846      5849      5845      5843      5846      5847
      5845      5843      5846      5848      5845      5843      5846      5849
      5846      5849      5852      5853      5846      5849      5852      5854
      5846      5849      5852      5855      5847      5846      5849      5850
      5847      5846      5849      5851      5847      5846      5849      5852
      5848      5846      5849      5850      5848      5846      5849      5851
      5848      5846      5849      5852      5849      5852      5855      5856
      5849      5852      5855      5857      5849      5852      5855      5858
      5850      5849      5852      5853      5850      5849      5852      5854
      5850      5849      5852      5855      5851      5849      5852      5853
      5851      5849      5852      5854      5851      5849      5852      5855
      5852      5855      5858      5859      5852      5855      5858      5860
      5852      5855      5858      5861      5853      5852      5855      5856
      5853      5852      5855      5857      5853      5852      5855      5858
      5854      5852      5855      5856      5854      5852      5855      5857
      5854      5852      5855      5858      5855      5858      5861      5862
      5855      5858      5861      5863      5855      5858      5861      5864
      5856      5855      5858      5859      5856      5855      5858      5860
      5856      5855      5858      5861      5857      5855      5858      5859
      5857      5855      5858      5860      5857      5855      5858      5861
      5859      5858      5861      5862      5859      5858      5861      5863
      5859      5858      5861      5864      5860      5858      5861      5862
      5860      5858      5861      5863      5860      5858      5861      5864
      5865      5867      5870      5871      5865      5867      5870      5872
      5865      5867      5870      5873      5866      5865      5867      5868
      5866      5865      5867      5869      5866      5865      5867      5870
      5867      5870      5873      5874      5867      5870      5873      5875
      5867      5870      5873      5876      5868      5867      5870      5871
      5868      5867      5870      5872      5868      5867      5870      5873
      5869      5867      5870      5871      5869      5867      5870      5872
      5869      5867      5870      5873      5870      5873      5876      5877
      5870      5873      5876      5878      5870      5873      5876      5879
      5871      5870      5873      5874      5871      5870      5873      5875
      5871      5870      5873      5876      5872      5870      5873      5874
      5872      5870      5873      5875      5872      5870      5873      5876
      5873      5876      5879      5880      5873      5876      5879      5881
      5873      5876      5879      5882      5874      5873      5876      5877
      5874      5873      5876      5878      5874      5873      5876      5879
      5875      5873      5876      5877      5875      5873      5876      5878
      5875      5873      5876      5879      5876      5879      5882      5883
      5876      5879      5882      5884      5876      5879      5882      5885
      5877      5876      5879      5880      5877      5876      5879      5881
      5877      5876      5879      5882      5878      5876      5879      5880
      5878      5876      5879      5881      5878      5876      5879      5882
      5879      5882      5885      5886      5879      5882      5885      5887
      5879      5882      5885      5888      5880      5879      5882      5883
      5880      5879      5882      5884      5880      5879      5882      5885
      5881      5879      5882      5883      5881      5879      5882      5884
      5881      5879      5882      5885      5882      5885      5888      5889
      5882      5885      5888      5890      5883      5882      5885      5886
      5883      5882      5885      5887      5883      5882      5885      5888
      5884      5882      5885      5886      5884      5882      5885      5887
      5884      5882      5885      5888      5885      5888      5890      5891
      5885      5888      5890      5892      5886      5885      5888      5889
      5886      5885      5888      5890      5887      5885      5888      5889
      5887      5885      5888      5890      5888      5890      5892      5893
      5888      5890      5892      5894      5888      5890      5892      5895
      5889      5888      5890      5891      5889      5888      5890      5892
      5890      5892      5895      5896      5890      5892      5895      5897
      5890      5892      5895      5898      5891      5890      5892      5893
      5891      5890      5892      5894      5891      5890      5892      5895
      5892      5895      5898      5899      5892      5895      5898      5900
      5892      5895      5898      5901      5893      5892      5895      5896
      5893      5892      5895      5897      5893      5892      5895      5898
      5894      5892      5895      5896      5894      5892      5895      5897
      5894      5892      5895      5898      5895      5898      5901      5902
      5895      5898      5901      5903      5895      5898      5901      5904
      5896      5895      5898      5899      5896      5895      5898      5900
      5896      5895      5898      5901      5897      5895      5898      5899
      5897      5895      5898      5900      5897      5895      5898      5901
      5898      5901      5904      5905      5898      5901      5904      5906
      5898      5901      5904      5907      5899      5898      5901      5902
      5899      5898      5901      5903      5899      5898      5901      5904
      5900      5898      5901      5902      5900      5898      5901      5903
      5900      5898      5901      5904      5901      5904      5907      5908
      5901      5904      5907      5909      5901      5904      5907      5910
      5902      5901      5904      5905      5902      5901      5904      5906
      5902      5901      5904      5907      5903      5901      5904      5905
      5903      5901      5904      5906      5903      5901      5904      5907
      5904      5907      5910      5911      5904      5907      5910      5912
      5904      5907      5910      5913      5905      5904      5907      5908
      5905      5904      5907      5909      5905      5904      5907      5910
      5906      5904      5907      5908      5906      5904      5907      5909
      5906      5904      5907      5910      5907      5910      5913      5914
      5907      5910      5913      5915      5907      5910      5913      5916
      5908      5907      5910      5911      5908      5907      5910      5912
      5908      5907      5910      5913      5909      5907      5910      5911
      5909      5907      5910      5912      5909      5907      5910      5913
      5911      5910      5913      5914      5911      5910      5913      5915
      5911      5910      5913      5916      5912      5910      5913      5914
      5912      5910      5913      5915      5912      5910      5913      5916
      5917      5921      5924      5925      5917      5921      5924      5955
      5917      5963      5960      5955      5917      5963      5960      5961
      5917      5963      5960      5962      5918      5917      5919      5920
      5918      5917      5921      5922      5918      5917      5921      5923
      5918      5917      5921      5924      5918      5917      5963      5960
      5918      5917      5963      5964      5918      5917      5963      5965
      5919      5917      5921      5922      5919      5917      5921      5923
      5919      5917      5921      5924      5919      5917      5963      5960
      5919      5917      5963      5964      5919      5917      5963      5965
      5920      5919      5917      5921      5920      5919      5917      5963
      5921      5917      5963      5960      5921      5917      5963      5964
      5921      5917      5963      5965      5921      5924      5925      5926
      5921      5924      5925      5927      5921      5924      5955      5953
      5921      5924      5955      5956      5921      5924      5955      5960
      5922      5921      5917      5963      5922      5921      5924      5925
      5922      5921      5924      5955      5923      5921      5917      5963
      5923      5921      5924      5925      5923      5921      5924      5955
      5924      5921      5917      5963      5924      5925      5927      5928
      5924      5925      5927      5929      5924      5925      5927      5930
      5924      5955      5953      5930      5924      5955      5953      5950
      5924      5955      5953      5954      5924      5955      5956      5957
      5924      5955      5956      5958      5924      5955      5956      5959
      5924      5955      5960      5961      5924      5955      5960      5962
      5924      5955      5960      5963      5925      5924      5955      5953
      5925      5924      5955      5956      5925      5924      5955      5960
      5925      5927      5930      5931      5925      5927      5930      5932
      5925      5927      5930      5953      5926      5925      5924      5955
      5926      5925      5927      5928      5926      5925      5927      5929
      5926      5925      5927      5930      5927      5925      5924      5955
      5927      5930      5932      5933      5927      5930      5932      5934
      5927      5930      5932      5942      5927      5930      5953      5950
      5927      5930      5953      5954      5927      5930      5953      5955
      5928      5927      5930      5931      5928      5927      5930      5932
      5928      5927      5930      5953      5929      5927      5930      5931
      5929      5927      5930      5932      5929      5927      5930      5953
      5930      5932      5934      5935      5930      5932      5934      5936
      5930      5932      5934      5937      5930      5932      5942      5940
      5930      5932      5942      5943      5930      5932      5942      5947
      5930      5953      5950      5947      5930      5953      5950      5951
      5930      5953      5950      5952      5930      5953      5955      5956
      5930      5953      5955      5960      5931      5930      5932      5933
      5931      5930      5932      5934      5931      5930      5932      5942
      5931      5930      5953      5950      5931      5930      5953      5954
      5931      5930      5953      5955      5932      5930      5953      5950
      5932      5930      5953      5954      5932      5930      5953      5955
      5932      5934      5937      5938      5932      5934      5937      5939
      5932      5934      5937      5940      5932      5942      5940      5937
      5932      5942      5940      5941      5932      5942      5940      5966
      5932      5942      5943      5944      5932      5942      5943      5945
      5932      5942      5943      5946      5932      5942      5947      5948
      5932      5942      5947      5949      5932      5942      5947      5950
      5933      5932      5930      5953      5933      5932      5934      5935
      5933      5932      5934      5936      5933      5932      5934      5937
      5933      5932      5942      5940      5933      5932      5942      5943
      5933      5932      5942      5947      5934      5932      5930      5953
      5934      5932      5942      5940      5934      5932      5942      5943
      5934      5932      5942      5947      5934      5937      5940      5941
      5934      5937      5940      5942      5934      5937      5940      5966
      5935      5934      5932      5942      5935      5934      5937      5938
      5935      5934      5937      5939      5935      5934      5937      5940
      5936      5934      5932      5942      5936      5934      5937      5938
      5936      5934      5937      5939      5936      5934      5937      5940
      5937      5934      5932      5942      5937      5940      5942      5943
      5937      5940      5942      5947      5937      5940      5966      5967
      5937      5940      5966      5968      5937      5940      5966      5972
      5938      5937      5940      5941      5938      5937      5940      5942
      5938      5937      5940      5966      5939      5937      5940      5941
      5939      5937      5940      5942      5939      5937      5940      5966
      5940      5942      5943      5944      5940      5942      5943      5945
      5940      5942      5943      5946      5940      5942      5947      5948
      5940      5942      5947      5949      5940      5942      5947      5950
      5940      5966      5968      5969      5940      5966      5968      5970
      5940      5966      5968      5971      5940      5966      5972      5973
      5940      5966      5972      5974      5940      5966      5972      5975
      5941      5940      5942      5943      5941      5940      5942      5947
      5941      5940      5966      5967      5941      5940      5966      5968
      5941      5940      5966      5972      5942      5932      5930      5953
      5942      5940      5966      5967      5942      5940      5966      5968
      5942      5940      5966      5972      5942      5947      5950      5951
      5942      5947      5950      5952      5942      5947      5950      5953
      5943      5942      5940      5966      5943      5942      5947      5948
      5943      5942      5947      5949      5943      5942      5947      5950
      5944      5943      5942      5947      5945      5943      5942      5947
      5946      5943      5942      5947      5947      5942      5940      5966
      5947      5950      5953      5954      5947      5950      5953      5955
      5948      5947      5950      5951      5948      5947      5950      5952
      5948      5947      5950      5953      5949      5947      5950      5951
      5949      5947      5950      5952      5949      5947      5950      5953
      5950      5953      5955      5956      5950      5953      5955      5960
      5951      5950      5953      5954      5951      5950      5953      5955
      5952      5950      5953      5954      5952      5950      5953      5955
      5953      5955      5956      5957      5953      5955      5956      5958
      5953      5955      5956      5959      5953      5955      5960      5961
      5953      5955      5960      5962      5953      5955      5960      5963
      5954      5953      5955      5956      5954      5953      5955      5960
      5955      5960      5963      5964      5955      5960      5963      5965
      5956      5955      5960      5961      5956      5955      5960      5962
      5956      5955      5960      5963      5957      5956      5955      5960
      5958      5956      5955      5960      5959      5956      5955      5960
      5961      5960      5963      5964      5961      5960      5963      5965
      5962      5960      5963      5964      5962      5960      5963      5965
      5966      5972      5975      5976      5966      5972      5975      5977
      5966      5972      5975      5978      5967      5966      5968      5969
      5967      5966      5968      5970      5967      5966      5968      5971
      5967      5966      5972      5973      5967      5966      5972      5974
      5967      5966      5972      5975      5968      5966      5972      5973
      5968      5966      5972      5974      5968      5966      5972      5975
      5969      5968      5966      5972      5970      5968      5966      5972
      5971      5968      5966      5972      5972      5975      5978      5979
      5972      5975      5978      5980      5972      5975      5978      5981
      5973      5972      5975      5976      5973      5972      5975      5977
      5973      5972      5975      5978      5974      5972      5975      5976
      5974      5972      5975      5977      5974      5972      5975      5978
      5975      5978      5981      5982      5975      5978      5981      5983
      5975      5978      5981      5987      5976      5975      5978      5979
      5976      5975      5978      5980      5976      5975      5978      5981
      5977      5975      5978      5979      5977      5975      5978      5980
      5977      5975      5978      5981      5978      5981      5983      5984
      5978      5981      5983      5985      5978      5981      5983      5986
      5978      5981      5987      5988      5978      5981      5987      5989
      5978      5981      5987      5990      5979      5978      5981      5982
      5979      5978      5981      5983      5979      5978      5981      5987
      5980      5978      5981      5982      5980      5978      5981      5983
      5980      5978      5981      5987      5982      5981      5983      5984
      5982      5981      5983      5985      5982      5981      5983      5986
      5982      5981      5987      5988      5982      5981      5987      5989
      5982      5981      5987      5990      5983      5981      5987      5988
      5983      5981      5987      5989      5983      5981      5987      5990
      5984      5983      5981      5987      5985      5983      5981      5987
      5986      5983      5981      5987      5991      5995      5998      5999
      5991      5995      5998      6029      5991      6037      6034      6029
      5991      6037      6034      6035      5991      6037      6034      6036
      5992      5991      5993      5994      5992      5991      5995      5996
      5992      5991      5995      5997      5992      5991      5995      5998
      5992      5991      6037      6034      5992      5991      6037      6038
      5992      5991      6037      6039      5993      5991      5995      5996
      5993      5991      5995      5997      5993      5991      5995      5998
      5993      5991      6037      6034      5993      5991      6037      6038
      5993      5991      6037      6039      5994      5993      5991      5995
      5994      5993      5991      6037      5995      5991      6037      6034
      5995      5991      6037      6038      5995      5991      6037      6039
      5995      5998      5999      6000      5995      5998      5999      6001
      5995      5998      6029      6027      5995      5998      6029      6030
      5995      5998      6029      6034      5996      5995      5991      6037
      5996      5995      5998      5999      5996      5995      5998      6029
      5997      5995      5991      6037      5997      5995      5998      5999
      5997      5995      5998      6029      5998      5995      5991      6037
      5998      5999      6001      6002      5998      5999      6001      6003
      5998      5999      6001      6004      5998      6029      6027      6004
      5998      6029      6027      6024      5998      6029      6027      6028
      5998      6029      6030      6031      5998      6029      6030      6032
      5998      6029      6030      6033      5998      6029      6034      6035
      5998      6029      6034      6036      5998      6029      6034      6037
      5999      5998      6029      6027      5999      5998      6029      6030
      5999      5998      6029      6034      5999      6001      6004      6005
      5999      6001      6004      6006      5999      6001      6004      6027
      6000      5999      5998      6029      6000      5999      6001      6002
      6000      5999      6001      6003      6000      5999      6001      6004
      6001      5999      5998      6029      6001      6004      6006      6007
      6001      6004      6006      6008      6001      6004      6006      6016
      6001      6004      6027      6024      6001      6004      6027      6028
      6001      6004      6027      6029      6002      6001      6004      6005
      6002      6001      6004      6006      6002      6001      6004      6027
      6003      6001      6004      6005      6003      6001      6004      6006
      6003      6001      6004      6027      6004      6006      6008      6009
      6004      6006      6008      6010      6004      6006      6008      6011
      6004      6006      6016      6014      6004      6006      6016      6017
      6004      6006      6016      6021      6004      6027      6024      6021
      6004      6027      6024      6025      6004      6027      6024      6026
      6004      6027      6029      6030      6004      6027      6029      6034
      6005      6004      6006      6007      6005      6004      6006      6008
      6005      6004      6006      6016      6005      6004      6027      6024
      6005      6004      6027      6028      6005      6004      6027      6029
      6006      6004      6027      6024      6006      6004      6027      6028
      6006      6004      6027      6029      6006      6008      6011      6012
      6006      6008      6011      6013      6006      6008      6011      6014
      6006      6016      6014      6011      6006      6016      6014      6015
      6006      6016      6014      6040      6006      6016      6017      6018
      6006      6016      6017      6019      6006      6016      6017      6020
      6006      6016      6021      6022      6006      6016      6021      6023
      6006      6016      6021      6024      6007      6006      6004      6027
      6007      6006      6008      6009      6007      6006      6008      6010
      6007      6006      6008      6011      6007      6006      6016      6014
      6007      6006      6016      6017      6007      6006      6016      6021
      6008      6006      6004      6027      6008      6006      6016      6014
      6008      6006      6016      6017      6008      6006      6016      6021
      6008      6011      6014      6015      6008      6011      6014      6016
      6008      6011      6014      6040      6009      6008      6006      6016
      6009      6008      6011      6012      6009      6008      6011      6013
      6009      6008      6011      6014      6010      6008      6006      6016
      6010      6008      6011      6012      6010      6008      6011      6013
      6010      6008      6011      6014      6011      6008      6006      6016
      6011      6014      6016      6017      6011      6014      6016      6021
      6011      6014      6040      6041      6011      6014      6040      6042
      6011      6014      6040      6046      6012      6011      6014      6015
      6012      6011      6014      6016      6012      6011      6014      6040
      6013      6011      6014      6015      6013      6011      6014      6016
      6013      6011      6014      6040      6014      6016      6017      6018
      6014      6016      6017      6019      6014      6016      6017      6020
      6014      6016      6021      6022      6014      6016      6021      6023
      6014      6016      6021      6024      6014      6040      6042      6043
      6014      6040      6042      6044      6014      6040      6042      6045
      6014      6040      6046      6047      6014      6040      6046      6048
      6014      6040      6046      6049      6015      6014      6016      6017
      6015      6014      6016      6021      6015      6014      6040      6041
      6015      6014      6040      6042      6015      6014      6040      6046
      6016      6006      6004      6027      6016      6014      6040      6041
      6016      6014      6040      6042      6016      6014      6040      6046
      6016      6021      6024      6025      6016      6021      6024      6026
      6016      6021      6024      6027      6017      6016      6014      6040
      6017      6016      6021      6022      6017      6016      6021      6023
      6017      6016      6021      6024      6018      6017      6016      6021
      6019      6017      6016      6021      6020      6017      6016      6021
      6021      6016      6014      6040      6021      6024      6027      6028
      6021      6024      6027      6029      6022      6021      6024      6025
      6022      6021      6024      6026      6022      6021      6024      6027
      6023      6021      6024      6025      6023      6021      6024      6026
      6023      6021      6024      6027      6024      6027      6029      6030
      6024      6027      6029      6034      6025      6024      6027      6028
      6025      6024      6027      6029      6026      6024      6027      6028
      6026      6024      6027      6029      6027      6029      6030      6031
      6027      6029      6030      6032      6027      6029      6030      6033
      6027      6029      6034      6035      6027      6029      6034      6036
      6027      6029      6034      6037      6028      6027      6029      6030
      6028      6027      6029      6034      6029      6034      6037      6038
      6029      6034      6037      6039      6030      6029      6034      6035
      6030      6029      6034      6036      6030      6029      6034      6037
      6031      6030      6029      6034      6032      6030      6029      6034
      6033      6030      6029      6034      6035      6034      6037      6038
      6035      6034      6037      6039      6036      6034      6037      6038
      6036      6034      6037      6039      6040      6046      6049      6050
      6040      6046      6049      6051      6040      6046      6049      6052
      6041      6040      6042      6043      6041      6040      6042      6044
      6041      6040      6042      6045      6041      6040      6046      6047
      6041      6040      6046      6048      6041      6040      6046      6049
      6042      6040      6046      6047      6042      6040      6046      6048
      6042      6040      6046      6049      6043      6042      6040      6046
      6044      6042      6040      6046      6045      6042      6040      6046
      6046      6049      6052      6053      6046      6049      6052      6054
      6046      6049      6052      6055      6047      6046      6049      6050
      6047      6046      6049      6051      6047      6046      6049      6052
      6048      6046      6049      6050      6048      6046      6049      6051
      6048      6046      6049      6052      6049      6052      6055      6056
      6049      6052      6055      6057      6049      6052      6055      6061
      6050      6049      6052      6053      6050      6049      6052      6054
      6050      6049      6052      6055      6051      6049      6052      6053
      6051      6049      6052      6054      6051      6049      6052      6055
      6052      6055      6057      6058      6052      6055      6057      6059
      6052      6055      6057      6060      6052      6055      6061      6062
      6052      6055      6061      6063      6052      6055      6061      6064
      6053      6052      6055      6056      6053      6052      6055      6057
      6053      6052      6055      6061      6054      6052      6055      6056
      6054      6052      6055      6057      6054      6052      6055      6061
      6056      6055      6057      6058      6056      6055      6057      6059
      6056      6055      6057      6060      6056      6055      6061      6062
      6056      6055      6061      6063      6056      6055      6061      6064
      6057      6055      6061      6062      6057      6055      6061      6063
      6057      6055      6061      6064      6058      6057      6055      6061
      6059      6057      6055      6061      6060      6057      6055      6061
      6065      6078      6081      6082      6065      6078      6081      6083
      6065      6078      6081      6088      6066      6065      6070      6071
      6066      6065      6070      6072      6066      6065      6070      6073
      6066      6065      6074      6075      6066      6065      6074      6076
      6066      6065      6074      6077      6066      6065      6078      6079
      6066      6065      6078      6080      6066      6065      6078      6081
      6067      6066      6065      6070      6067      6066      6065      6074
      6067      6066      6065      6078      6068      6066      6065      6070
      6068      6066      6065      6074      6068      6066      6065      6078
      6069      6066      6065      6070      6069      6066      6065      6074
      6069      6066      6065      6078      6070      6065      6074      6075
      6070      6065      6074      6076      6070      6065      6074      6077
      6070      6065      6078      6079      6070      6065      6078      6080
      6070      6065      6078      6081      6071      6070      6065      6074
      6071      6070      6065      6078      6072      6070      6065      6074
      6072      6070      6065      6078      6073      6070      6065      6074
      6073      6070      6065      6078      6074      6065      6078      6079
      6074      6065      6078      6080      6074      6065      6078      6081
      6075      6074      6065      6078      6076      6074      6065      6078
      6077      6074      6065      6078      6078      6081      6088      6084
      6079      6078      6081      6082      6079      6078      6081      6083
      6079      6078      6081      6088      6080      6078      6081      6082
      6080      6078      6081      6083      6080      6078      6081      6088
      6081      6088      6084      6085      6081      6088      6084      6086
      6081      6088      6084      6087      6082      6081      6088      6084
      6083      6081      6088      6084      6084      6087      6089      6090
      6084      6087      6089      6091      6084      6087      6089      6094
      6085      6084      6087      6089      6086      6084      6087      6089
      6087      6089      6094      6092      6087      6089      6094      6095
      6087      6089      6094      6096      6088      6084      6087      6089
      6089      6094      6092      6093      6089      6094      6092      6144
      6089      6094      6096      6097      6089      6094      6096      6098
      6089      6094      6096      6100      6090      6089      6094      6092
      6090      6089      6094      6095      6090      6089      6094      6096
      6091      6089      6094      6092      6091      6089      6094      6095
      6091      6089      6094      6096      6092      6094      6096      6097
      6092      6094      6096      6098      6092      6094      6096      6100
      6092      6144      6146      6147      6092      6144      6146      6148
      6092      6144      6146      6149      6093      6092      6094      6095
      6093      6092      6094      6096      6093      6092      6144      6145
      6093      6092      6144      6146      6094      6092      6144      6145
      6094      6092      6144      6146      6094      6096      6098      6099
      6094      6096      6100      6101      6094      6096      6100      6102
      6095      6094      6092      6144      6095      6094      6096      6097
      6095      6094      6096      6098      6095      6094      6096      6100
      6096      6094      6092      6144      6096      6100      6102      6103
      6096      6100      6102      6104      6097      6096      6098      6099
      6097      6096      6100      6101      6097      6096      6100      6102
      6098      6096      6100      6101      6098      6096      6100      6102
      6099      6098      6096      6100      6100      6102      6104      6105
      6100      6102      6104      6106      6100      6102      6104      6107
      6101      6100      6102      6103      6101      6100      6102      6104
      6102      6104      6107      6108      6102      6104      6107      6109
      6102      6104      6107      6110      6103      6102      6104      6105
      6103      6102      6104      6106      6103      6102      6104      6107
      6104      6107      6110      6111      6104      6107      6110      6112
      6104      6107      6110      6113      6105      6104      6107      6108
      6105      6104      6107      6109      6105      6104      6107      6110
      6106      6104      6107      6108      6106      6104      6107      6109
      6106      6104      6107      6110      6107      6110      6113      6114
      6107      6110      6113      6115      6107      6110      6113      6116
      6108      6107      6110      6111      6108      6107      6110      6112
      6108      6107      6110      6113      6109      6107      6110      6111
      6109      6107      6110      6112      6109      6107      6110      6113
      6110      6113      6116      6117      6110      6113      6116      6118
      6110      6113      6116      6119      6111      6110      6113      6114
      6111      6110      6113      6115      6111      6110      6113      6116
      6112      6110      6113      6114      6112      6110      6113      6115
      6112      6110      6113      6116      6113      6116      6119      6120
      6113      6116      6119      6121      6113      6116      6119      6122
      6114      6113      6116      6117      6114      6113      6116      6118
      6114      6113      6116      6119      6115      6113      6116      6117
      6115      6113      6116      6118      6115      6113      6116      6119
      6116      6119      6122      6123      6116      6119      6122      6124
      6116      6119      6122      6125      6117      6116      6119      6120
      6117      6116      6119      6121      6117      6116      6119      6122
      6118      6116      6119      6120      6118      6116      6119      6121
      6118      6116      6119      6122      6119      6122      6125      6126
      6119      6122      6125      6127      6119      6122      6125      6128
      6120      6119      6122      6123      6120      6119      6122      6124
      6120      6119      6122      6125      6121      6119      6122      6123
      6121      6119      6122      6124      6121      6119      6122      6125
      6122      6125      6128      6129      6122      6125      6128      6130
      6122      6125      6128      6131      6123      6122      6125      6126
      6123      6122      6125      6127      6123      6122      6125      6128
      6124      6122      6125      6126      6124      6122      6125      6127
      6124      6122      6125      6128      6125      6128      6131      6132
      6125      6128      6131      6133      6125      6128      6131      6134
      6126      6125      6128      6129      6126      6125      6128      6130
      6126      6125      6128      6131      6127      6125      6128      6129
      6127      6125      6128      6130      6127      6125      6128      6131
      6128      6131      6134      6135      6128      6131      6134      6136
      6128      6131      6134      6137      6129      6128      6131      6132
      6129      6128      6131      6133      6129      6128      6131      6134
      6130      6128      6131      6132      6130      6128      6131      6133
      6130      6128      6131      6134      6131      6134      6137      6138
      6131      6134      6137      6139      6131      6134      6137      6140
      6132      6131      6134      6135      6132      6131      6134      6136
      6132      6131      6134      6137      6133      6131      6134      6135
      6133      6131      6134      6136      6133      6131      6134      6137
      6134      6137      6140      6141      6134      6137      6140      6142
      6134      6137      6140      6143      6135      6134      6137      6138
      6135      6134      6137      6139      6135      6134      6137      6140
      6136      6134      6137      6138      6136      6134      6137      6139
      6136      6134      6137      6140      6138      6137      6140      6141
      6138      6137      6140      6142      6138      6137      6140      6143
      6139      6137      6140      6141      6139      6137      6140      6142
      6139      6137      6140      6143      6144      6146      6149      6150
      6144      6146      6149      6151      6144      6146      6149      6152
      6145      6144      6146      6147      6145      6144      6146      6148
      6145      6144      6146      6149      6146      6149      6152      6153
      6146      6149      6152      6154      6146      6149      6152      6155
      6147      6146      6149      6150      6147      6146      6149      6151
      6147      6146      6149      6152      6148      6146      6149      6150
      6148      6146      6149      6151      6148      6146      6149      6152
      6149      6152      6155      6156      6149      6152      6155      6157
      6149      6152      6155      6158      6150      6149      6152      6153
      6150      6149      6152      6154      6150      6149      6152      6155
      6151      6149      6152      6153      6151      6149      6152      6154
      6151      6149      6152      6155      6152      6155      6158      6159
      6152      6155      6158      6160      6152      6155      6158      6161
      6153      6152      6155      6156      6153      6152      6155      6157
      6153      6152      6155      6158      6154      6152      6155      6156
      6154      6152      6155      6157      6154      6152      6155      6158
      6155      6158      6161      6162      6155      6158      6161      6163
      6155      6158      6161      6164      6156      6155      6158      6159
      6156      6155      6158      6160      6156      6155      6158      6161
      6157      6155      6158      6159      6157      6155      6158      6160
      6157      6155      6158      6161      6158      6161      6164      6165
      6158      6161      6164      6166      6158      6161      6164      6167
      6159      6158      6161      6162      6159      6158      6161      6163
      6159      6158      6161      6164      6160      6158      6161      6162
      6160      6158      6161      6163      6160      6158      6161      6164
      6161      6164      6167      6168      6161      6164      6167      6169
      6162      6161      6164      6165      6162      6161      6164      6166
      6162      6161      6164      6167      6163      6161      6164      6165
      6163      6161      6164      6166      6163      6161      6164      6167
      6164      6167      6169      6170      6164      6167      6169      6171
      6165      6164      6167      6168      6165      6164      6167      6169
      6166      6164      6167      6168      6166      6164      6167      6169
      6167      6169      6171      6172      6167      6169      6171      6173
      6167      6169      6171      6174      6168      6167      6169      6170
      6168      6167      6169      6171      6169      6171      6174      6175
      6169      6171      6174      6176      6169      6171      6174      6177
      6170      6169      6171      6172      6170      6169      6171      6173
      6170      6169      6171      6174      6171      6174      6177      6178
      6171      6174      6177      6179      6171      6174      6177      6180
      6172      6171      6174      6175      6172      6171      6174      6176
      6172      6171      6174      6177      6173      6171      6174      6175
      6173      6171      6174      6176      6173      6171      6174      6177
      6174      6177      6180      6181      6174      6177      6180      6182
      6174      6177      6180      6183      6175      6174      6177      6178
      6175      6174      6177      6179      6175      6174      6177      6180
      6176      6174      6177      6178      6176      6174      6177      6179
      6176      6174      6177      6180      6177      6180      6183      6184
      6177      6180      6183      6185      6177      6180      6183      6186
      6178      6177      6180      6181      6178      6177      6180      6182
      6178      6177      6180      6183      6179      6177      6180      6181
      6179      6177      6180      6182      6179      6177      6180      6183
      6180      6183      6186      6187      6180      6183      6186      6188
      6180      6183      6186      6189      6181      6180      6183      6184
      6181      6180      6183      6185      6181      6180      6183      6186
      6182      6180      6183      6184      6182      6180      6183      6185
      6182      6180      6183      6186      6183      6186      6189      6190
      6183      6186      6189      6191      6183      6186      6189      6192
      6184      6183      6186      6187      6184      6183      6186      6188
      6184      6183      6186      6189      6185      6183      6186      6187
      6185      6183      6186      6188      6185      6183      6186      6189
      6186      6189      6192      6193      6186      6189      6192      6194
      6186      6189      6192      6195      6187      6186      6189      6190
      6187      6186      6189      6191      6187      6186      6189      6192
      6188      6186      6189      6190      6188      6186      6189      6191
      6188      6186      6189      6192      6190      6189      6192      6193
      6190      6189      6192      6194      6190      6189      6192      6195
      6191      6189      6192      6193      6191      6189      6192      6194
      6191      6189      6192      6195      6196      6197      6212      6213
      6196      6197      6212      6214      6196      6197      6212      6218
      6197      6196      6200      6201      6197      6196      6200      6202
      6197      6196      6200      6203      6197      6196      6204      6205
      6197      6196      6204      6206      6197      6196      6204      6207
      6197      6196      6208      6209      6197      6196      6208      6210
      6197      6196      6208      6211      6197      6212      6218      6215
      6198      6197      6196      6200      6198      6197      6196      6204
      6198      6197      6196      6208      6198      6197      6212      6213
      6198      6197      6212      6214      6198      6197      6212      6218
      6199      6197      6196      6200      6199      6197      6196      6204
      6199      6197      6196      6208      6199      6197      6212      6213
      6199      6197      6212      6214      6199      6197      6212      6218
      6200      6196      6197      6212      6200      6196      6204      6205
      6200      6196      6204      6206      6200      6196      6204      6207
      6200      6196      6208      6209      6200      6196      6208      6210
      6200      6196      6208      6211      6201      6200      6196      6204
      6201      6200      6196      6208      6202      6200      6196      6204
      6202      6200      6196      6208      6203      6200      6196      6204
      6203      6200      6196      6208      6204      6196      6197      6212
      6204      6196      6208      6209      6204      6196      6208      6210
      6204      6196      6208      6211      6205      6204      6196      6208
      6206      6204      6196      6208      6207      6204      6196      6208
      6208      6196      6197      6212      6212      6218      6215      6216
      6212      6218      6215      6217      6212      6218      6215      6219
      6213      6212      6218      6215      6214      6212      6218      6215
      6215      6219      6220      6221      6215      6219      6220      6222
      6215      6219      6220      6223      6216      6215      6219      6220
      6217      6215      6219      6220      6218      6215      6219      6220
      6219      6220      6223      6224      6219      6220      6223      6225
      6219      6220      6223      6231      6220      6223      6225      6226
      6220      6223      6231      6232      6220      6223      6231      6233
      6220      6223      6231      6234      6221      6220      6223      6224
      6221      6220      6223      6225      6221      6220      6223      6231
      6222      6220      6223      6224      6222      6220      6223      6225
      6222      6220      6223      6231      6223      6225      6226      6227
      6223      6225      6226      6228      6223      6231      6234      6235
      6224      6223      6225      6226      6224      6223      6231      6232
      6224      6223      6231      6233      6224      6223      6231      6234
      6225      6223      6231      6232      6225      6223      6231      6233
      6225      6223      6231      6234      6225      6226      6228      6229
      6225      6226      6228      6230      6225      6226      6228      6240
      6226      6225      6223      6231      6226      6228      6240      6241
      6226      6228      6240      6242      6226      6228      6240      6243
      6227      6226      6228      6229      6227      6226      6228      6230
      6227      6226      6228      6240      6228      6240      6243      6244
      6228      6240      6243      6245      6228      6240      6243      6246
      6229      6228      6240      6241      6229      6228      6240      6242
      6229      6228      6240      6243      6230      6228      6240      6241
      6230      6228      6240      6242      6230      6228      6240      6243
      6231      6234      6235      6236      6231      6234      6235      6237
      6232      6231      6234      6235      6233      6231      6234      6235
      6234      6235      6237      6238      6234      6235      6237      6239
      6234      6235      6237      6287      6235      6237      6287      6288
      6235      6237      6287      6289      6235      6237      6287      6290
      6236      6235      6237      6238      6236      6235      6237      6239
      6236      6235      6237      6287      6237      6287      6290      6291
      6237      6287      6290      6292      6237      6287      6290      6293
      6238      6237      6287      6288      6238      6237      6287      6289
      6238      6237      6287      6290      6239      6237      6287      6288
      6239      6237      6287      6289      6239      6237      6287      6290
      6240      6243      6246      6247      6240      6243      6246      6248
      6241      6240      6243      6244      6241      6240      6243      6245
      6241      6240      6243      6246      6242      6240      6243      6244
      6242      6240      6243      6245      6242      6240      6243      6246
      6243      6246      6248      6249      6243      6246      6248      6250
      6244      6243      6246      6247      6244      6243      6246      6248
      6245      6243      6246      6247      6245      6243      6246      6248
      6246      6248      6250      6251      6246      6248      6250      6252
      6246      6248      6250      6253      6247      6246      6248      6249
      6247      6246      6248      6250      6248      6250      6253      6254
      6248      6250      6253      6255      6249      6248      6250      6251
      6249      6248      6250      6252      6249      6248      6250      6253
      6250      6253      6255      6256      6250      6253      6255      6257
      6251      6250      6253      6254      6251      6250      6253      6255
      6252      6250      6253      6254      6252      6250      6253      6255
      6253      6255      6257      6258      6253      6255      6257      6259
      6253      6255      6257      6260      6254      6253      6255      6256
      6254      6253      6255      6257      6255      6257      6260      6261
      6255      6257      6260      6262      6256      6255      6257      6258
      6256      6255      6257      6259      6256      6255      6257      6260
      6257      6260      6262      6263      6257      6260      6262      6264
      6258      6257      6260      6261      6258      6257      6260      6262
      6259      6257      6260      6261      6259      6257      6260      6262
      6260      6262      6264      6265      6260      6262      6264      6266
      6260      6262      6264      6267      6261      6260      6262      6263
      6261      6260      6262      6264      6262      6264      6267      6268
      6262      6264      6267      6269      6263      6262      6264      6265
      6263      6262      6264      6266      6263      6262      6264      6267
      6264      6267      6269      6270      6264      6267      6269      6271
      6265      6264      6267      6268      6265      6264      6267      6269
      6266      6264      6267      6268      6266      6264      6267      6269
      6267      6269      6271      6272      6267      6269      6271      6273
      6267      6269      6271      6274      6268      6267      6269      6270
      6268      6267      6269      6271      6269      6271      6274      6275
      6269      6271      6274      6276      6269      6271      6274      6277
      6270      6269      6271      6272      6270      6269      6271      6273
      6270      6269      6271      6274      6271      6274      6277      6278
      6271      6274      6277      6279      6271      6274      6277      6280
      6272      6271      6274      6275      6272      6271      6274      6276
      6272      6271      6274      6277      6273      6271      6274      6275
      6273      6271      6274      6276      6273      6271      6274      6277
      6274      6277      6280      6281      6274      6277      6280      6282
      6274      6277      6280      6283      6275      6274      6277      6278
      6275      6274      6277      6279      6275      6274      6277      6280
      6276      6274      6277      6278      6276      6274      6277      6279
      6276      6274      6277      6280      6277      6280      6283      6284
      6277      6280      6283      6285      6277      6280      6283      6286
      6278      6277      6280      6281      6278      6277      6280      6282
      6278      6277      6280      6283      6279      6277      6280      6281
      6279      6277      6280      6282      6279      6277      6280      6283
      6281      6280      6283      6284      6281      6280      6283      6285
      6281      6280      6283      6286      6282      6280      6283      6284
      6282      6280      6283      6285      6282      6280      6283      6286
      6287      6290      6293      6294      6287      6290      6293      6295
      6287      6290      6293      6296      6288      6287      6290      6291
      6288      6287      6290      6292      6288      6287      6290      6293
      6289      6287      6290      6291      6289      6287      6290      6292
      6289      6287      6290      6293      6290      6293      6296      6297
      6290      6293      6296      6298      6290      6293      6296      6299
      6291      6290      6293      6294      6291      6290      6293      6295
      6291      6290      6293      6296      6292      6290      6293      6294
      6292      6290      6293      6295      6292      6290      6293      6296
      6293      6296      6299      6300      6293      6296      6299      6301
      6293      6296      6299      6302      6294      6293      6296      6297
      6294      6293      6296      6298      6294      6293      6296      6299
      6295      6293      6296      6297      6295      6293      6296      6298
      6295      6293      6296      6299      6296      6299      6302      6303
      6296      6299      6302      6304      6296      6299      6302      6305
      6297      6296      6299      6300      6297      6296      6299      6301
      6297      6296      6299      6302      6298      6296      6299      6300
      6298      6296      6299      6301      6298      6296      6299      6302
      6299      6302      6305      6306      6299      6302      6305      6307
      6299      6302      6305      6308      6300      6299      6302      6303
      6300      6299      6302      6304      6300      6299      6302      6305
      6301      6299      6302      6303      6301      6299      6302      6304
      6301      6299      6302      6305      6302      6305      6308      6309
      6302      6305      6308      6310      6302      6305      6308      6311
      6303      6302      6305      6306      6303      6302      6305      6307
      6303      6302      6305      6308      6304      6302      6305      6306
      6304      6302      6305      6307      6304      6302      6305      6308
      6305      6308      6311      6312      6305      6308      6311      6313
      6305      6308      6311      6314      6306      6305      6308      6309
      6306      6305      6308      6310      6306      6305      6308      6311
      6307      6305      6308      6309      6307      6305      6308      6310
      6307      6305      6308      6311      6308      6311      6314      6315
      6308      6311      6314      6316      6308      6311      6314      6317
      6309      6308      6311      6312      6309      6308      6311      6313
      6309      6308      6311      6314      6310      6308      6311      6312
      6310      6308      6311      6313      6310      6308      6311      6314
      6311      6314      6317      6318      6311      6314      6317      6319
      6311      6314      6317      6320      6312      6311      6314      6315
      6312      6311      6314      6316      6312      6311      6314      6317
      6313      6311      6314      6315      6313      6311      6314      6316
      6313      6311      6314      6317      6314      6317      6320      6321
      6314      6317      6320      6322      6314      6317      6320      6323
      6315      6314      6317      6318      6315      6314      6317      6319
      6315      6314      6317      6320      6316      6314      6317      6318
      6316      6314      6317      6319      6316      6314      6317      6320
      6317      6320      6323      6324      6317      6320      6323      6325
      6317      6320      6323      6326      6318      6317      6320      6321
      6318      6317      6320      6322      6318      6317      6320      6323
      6319      6317      6320      6321      6319      6317      6320      6322
      6319      6317      6320      6323      6320      6323      6326      6327
      6320      6323      6326      6328      6320      6323      6326      6329
      6321      6320      6323      6324      6321      6320      6323      6325
      6321      6320      6323      6326      6322      6320      6323      6324
      6322      6320      6323      6325      6322      6320      6323      6326
      6323      6326      6329      6330      6323      6326      6329      6331
      6323      6326      6329      6332      6324      6323      6326      6327
      6324      6323      6326      6328      6324      6323      6326      6329
      6325      6323      6326      6327      6325      6323      6326      6328
      6325      6323      6326      6329      6326      6329      6332      6333
      6326      6329      6332      6334      6326      6329      6332      6335
      6327      6326      6329      6330      6327      6326      6329      6331
      6327      6326      6329      6332      6328      6326      6329      6330
      6328      6326      6329      6331      6328      6326      6329      6332
      6330      6329      6332      6333      6330      6329      6332      6334
      6330      6329      6332      6335      6331      6329      6332      6333
      6331      6329      6332      6334      6331      6329      6332      6335
      6336      6349      6352      6353      6336      6349      6352      6354
      6336      6349      6352      6359      6337      6336      6341      6342
      6337      6336      6341      6343      6337      6336      6341      6344
      6337      6336      6345      6346      6337      6336      6345      6347
      6337      6336      6345      6348      6337      6336      6349      6350
      6337      6336      6349      6351      6337      6336      6349      6352
      6338      6337      6336      6341      6338      6337      6336      6345
      6338      6337      6336      6349      6339      6337      6336      6341
      6339      6337      6336      6345      6339      6337      6336      6349
      6340      6337      6336      6341      6340      6337      6336      6345
      6340      6337      6336      6349      6341      6336      6345      6346
      6341      6336      6345      6347      6341      6336      6345      6348
      6341      6336      6349      6350      6341      6336      6349      6351
      6341      6336      6349      6352      6342      6341      6336      6345
      6342      6341      6336      6349      6343      6341      6336      6345
      6343      6341      6336      6349      6344      6341      6336      6345
      6344      6341      6336      6349      6345      6336      6349      6350
      6345      6336      6349      6351      6345      6336      6349      6352
      6346      6345      6336      6349      6347      6345      6336      6349
      6348      6345      6336      6349      6349      6352      6359      6355
      6350      6349      6352      6353      6350      6349      6352      6354
      6350      6349      6352      6359      6351      6349      6352      6353
      6351      6349      6352      6354      6351      6349      6352      6359
      6352      6359      6355      6356      6352      6359      6355      6357
      6352      6359      6355      6358      6353      6352      6359      6355
      6354      6352      6359      6355      6355      6358      6360      6361
      6355      6358      6360      6362      6355      6358      6360      6365
      6356      6355      6358      6360      6357      6355      6358      6360
      6358      6360      6365      6363      6358      6360      6365      6366
      6358      6360      6365      6367      6359      6355      6358      6360
      6360      6365      6363      6364      6360      6365      6363      6415
      6360      6365      6367      6368      6360      6365      6367      6369
      6360      6365      6367      6371      6361      6360      6365      6363
      6361      6360      6365      6366      6361      6360      6365      6367
      6362      6360      6365      6363      6362      6360      6365      6366
      6362      6360      6365      6367      6363      6365      6367      6368
      6363      6365      6367      6369      6363      6365      6367      6371
      6363      6415      6417      6418      6363      6415      6417      6419
      6363      6415      6417      6420      6364      6363      6365      6366
      6364      6363      6365      6367      6364      6363      6415      6416
      6364      6363      6415      6417      6365      6363      6415      6416
      6365      6363      6415      6417      6365      6367      6369      6370
      6365      6367      6371      6372      6365      6367      6371      6373
      6366      6365      6363      6415      6366      6365      6367      6368
      6366      6365      6367      6369      6366      6365      6367      6371
      6367      6365      6363      6415      6367      6371      6373      6374
      6367      6371      6373      6375      6368      6367      6369      6370
      6368      6367      6371      6372      6368      6367      6371      6373
      6369      6367      6371      6372      6369      6367      6371      6373
      6370      6369      6367      6371      6371      6373      6375      6376
      6371      6373      6375      6377      6371      6373      6375      6378
      6372      6371      6373      6374      6372      6371      6373      6375
      6373      6375      6378      6379      6373      6375      6378      6380
      6373      6375      6378      6381      6374      6373      6375      6376
      6374      6373      6375      6377      6374      6373      6375      6378
      6375      6378      6381      6382      6375      6378      6381      6383
      6375      6378      6381      6384      6376      6375      6378      6379
      6376      6375      6378      6380      6376      6375      6378      6381
      6377      6375      6378      6379      6377      6375      6378      6380
      6377      6375      6378      6381      6378      6381      6384      6385
      6378      6381      6384      6386      6378      6381      6384      6387
      6379      6378      6381      6382      6379      6378      6381      6383
      6379      6378      6381      6384      6380      6378      6381      6382
      6380      6378      6381      6383      6380      6378      6381      6384
      6381      6384      6387      6388      6381      6384      6387      6389
      6381      6384      6387      6390      6382      6381      6384      6385
      6382      6381      6384      6386      6382      6381      6384      6387
      6383      6381      6384      6385      6383      6381      6384      6386
      6383      6381      6384      6387      6384      6387      6390      6391
      6384      6387      6390      6392      6384      6387      6390      6393
      6385      6384      6387      6388      6385      6384      6387      6389
      6385      6384      6387      6390      6386      6384      6387      6388
      6386      6384      6387      6389      6386      6384      6387      6390
      6387      6390      6393      6394      6387      6390      6393      6395
      6387      6390      6393      6396      6388      6387      6390      6391
      6388      6387      6390      6392      6388      6387      6390      6393
      6389      6387      6390      6391      6389      6387      6390      6392
      6389      6387      6390      6393      6390      6393      6396      6397
      6390      6393      6396      6398      6390      6393      6396      6399
      6391      6390      6393      6394      6391      6390      6393      6395
      6391      6390      6393      6396      6392      6390      6393      6394
      6392      6390      6393      6395      6392      6390      6393      6396
      6393      6396      6399      6400      6393      6396      6399      6401
      6393      6396      6399      6402      6394      6393      6396      6397
      6394      6393      6396      6398      6394      6393      6396      6399
      6395      6393      6396      6397      6395      6393      6396      6398
      6395      6393      6396      6399      6396      6399      6402      6403
      6396      6399      6402      6404      6396      6399      6402      6405
      6397      6396      6399      6400      6397      6396      6399      6401
      6397      6396      6399      6402      6398      6396      6399      6400
      6398      6396      6399      6401      6398      6396      6399      6402
      6399      6402      6405      6406      6399      6402      6405      6407
      6399      6402      6405      6408      6400      6399      6402      6403
      6400      6399      6402      6404      6400      6399      6402      6405
      6401      6399      6402      6403      6401      6399      6402      6404
      6401      6399      6402      6405      6402      6405      6408      6409
      6402      6405      6408      6410      6402      6405      6408      6411
      6403      6402      6405      6406      6403      6402      6405      6407
      6403      6402      6405      6408      6404      6402      6405      6406
      6404      6402      6405      6407      6404      6402      6405      6408
      6405      6408      6411      6412      6405      6408      6411      6413
      6405      6408      6411      6414      6406      6405      6408      6409
      6406      6405      6408      6410      6406      6405      6408      6411
      6407      6405      6408      6409      6407      6405      6408      6410
      6407      6405      6408      6411      6409      6408      6411      6412
      6409      6408      6411      6413      6409      6408      6411      6414
      6410      6408      6411      6412      6410      6408      6411      6413
      6410      6408      6411      6414      6415      6417      6420      6421
      6415      6417      6420      6422      6415      6417      6420      6423
      6416      6415      6417      6418      6416      6415      6417      6419
      6416      6415      6417      6420      6417      6420      6423      6424
      6417      6420      6423      6425      6417      6420      6423      6426
      6418      6417      6420      6421      6418      6417      6420      6422
      6418      6417      6420      6423      6419      6417      6420      6421
      6419      6417      6420      6422      6419      6417      6420      6423
      6420      6423      6426      6427      6420      6423      6426      6428
      6420      6423      6426      6429      6421      6420      6423      6424
      6421      6420      6423      6425      6421      6420      6423      6426
      6422      6420      6423      6424      6422      6420      6423      6425
      6422      6420      6423      6426      6423      6426      6429      6430
      6423      6426      6429      6431      6423      6426      6429      6432
      6424      6423      6426      6427      6424      6423      6426      6428
      6424      6423      6426      6429      6425      6423      6426      6427
      6425      6423      6426      6428      6425      6423      6426      6429
      6426      6429      6432      6433      6426      6429      6432      6434
      6426      6429      6432      6435      6427      6426      6429      6430
      6427      6426      6429      6431      6427      6426      6429      6432
      6428      6426      6429      6430      6428      6426      6429      6431
      6428      6426      6429      6432      6429      6432      6435      6436
      6429      6432      6435      6437      6429      6432      6435      6438
      6430      6429      6432      6433      6430      6429      6432      6434
      6430      6429      6432      6435      6431      6429      6432      6433
      6431      6429      6432      6434      6431      6429      6432      6435
      6432      6435      6438      6439      6432      6435      6438      6440
      6433      6432      6435      6436      6433      6432      6435      6437
      6433      6432      6435      6438      6434      6432      6435      6436
      6434      6432      6435      6437      6434      6432      6435      6438
      6435      6438      6440      6441      6435      6438      6440      6442
      6436      6435      6438      6439      6436      6435      6438      6440
      6437      6435      6438      6439      6437      6435      6438      6440
      6438      6440      6442      6443      6438      6440      6442      6444
      6438      6440      6442      6445      6439      6438      6440      6441
      6439      6438      6440      6442      6440      6442      6445      6446
      6440      6442      6445      6447      6440      6442      6445      6448
      6441      6440      6442      6443      6441      6440      6442      6444
      6441      6440      6442      6445      6442      6445      6448      6449
      6442      6445      6448      6450      6442      6445      6448      6451
      6443      6442      6445      6446      6443      6442      6445      6447
      6443      6442      6445      6448      6444      6442      6445      6446
      6444      6442      6445      6447      6444      6442      6445      6448
      6445      6448      6451      6452      6445      6448      6451      6453
      6445      6448      6451      6454      6446      6445      6448      6449
      6446      6445      6448      6450      6446      6445      6448      6451
      6447      6445      6448      6449      6447      6445      6448      6450
      6447      6445      6448      6451      6448      6451      6454      6455
      6448      6451      6454      6456      6448      6451      6454      6457
      6449      6448      6451      6452      6449      6448      6451      6453
      6449      6448      6451      6454      6450      6448      6451      6452
      6450      6448      6451      6453      6450      6448      6451      6454
      6451      6454      6457      6458      6451      6454      6457      6459
      6451      6454      6457      6460      6452      6451      6454      6455
      6452      6451      6454      6456      6452      6451      6454      6457
      6453      6451      6454      6455      6453      6451      6454      6456
      6453      6451      6454      6457      6454      6457      6460      6461
      6454      6457      6460      6462      6454      6457      6460      6463
      6455      6454      6457      6458      6455      6454      6457      6459
      6455      6454      6457      6460      6456      6454      6457      6458
      6456      6454      6457      6459      6456      6454      6457      6460
      6457      6460      6463      6464      6457      6460      6463      6465
      6457      6460      6463      6466      6458      6457      6460      6461
      6458      6457      6460      6462      6458      6457      6460      6463
      6459      6457      6460      6461      6459      6457      6460      6462
      6459      6457      6460      6463      6461      6460      6463      6464
      6461      6460      6463      6465      6461      6460      6463      6466
      6462      6460      6463      6464      6462      6460      6463      6465
      6462      6460      6463      6466      6467      6480      6483      6484
      6467      6480      6483      6485      6467      6480      6483      6489
      6468      6467      6472      6473      6468      6467      6472      6474
      6468      6467      6472      6475      6468      6467      6476      6477
      6468      6467      6476      6478      6468      6467      6476      6479
      6468      6467      6480      6481      6468      6467      6480      6482
      6468      6467      6480      6483      6469      6468      6467      6472
      6469      6468      6467      6476      6469      6468      6467      6480
      6470      6468      6467      6472      6470      6468      6467      6476
      6470      6468      6467      6480      6471      6468      6467      6472
      6471      6468      6467      6476      6471      6468      6467      6480
      6472      6467      6476      6477      6472      6467      6476      6478
      6472      6467      6476      6479      6472      6467      6480      6481
      6472      6467      6480      6482      6472      6467      6480      6483
      6473      6472      6467      6476      6473      6472      6467      6480
      6474      6472      6467      6476      6474      6472      6467      6480
      6475      6472      6467      6476      6475      6472      6467      6480
      6476      6467      6480      6481      6476      6467      6480      6482
      6476      6467      6480      6483      6477      6476      6467      6480
      6478      6476      6467      6480      6479      6476      6467      6480
      6480      6483      6489      6486      6481      6480      6483      6484
      6481      6480      6483      6485      6481      6480      6483      6489
      6482      6480      6483      6484      6482      6480      6483      6485
      6482      6480      6483      6489      6483      6489      6486      6487
      6483      6489      6486      6488      6483      6489      6486      6490
      6484      6483      6489      6486      6485      6483      6489      6486
      6486      6490      6491      6492      6486      6490      6491      6493
      6486      6490      6491      6494      6487      6486      6490      6491
      6488      6486      6490      6491      6489      6486      6490      6491
      6490      6491      6494      6495      6490      6491      6494      6496
      6490      6491      6494      6502      6491      6494      6496      6497
      6491      6494      6502      6503      6491      6494      6502      6504
      6491      6494      6502      6505      6492      6491      6494      6495
      6492      6491      6494      6496      6492      6491      6494      6502
      6493      6491      6494      6495      6493      6491      6494      6496
      6493      6491      6494      6502      6494      6496      6497      6498
      6494      6496      6497      6499      6494      6502      6505      6506
      6495      6494      6496      6497      6495      6494      6502      6503
      6495      6494      6502      6504      6495      6494      6502      6505
      6496      6494      6502      6503      6496      6494      6502      6504
      6496      6494      6502      6505      6496      6497      6499      6500
      6496      6497      6499      6501      6496      6497      6499      6511
      6497      6496      6494      6502      6497      6499      6511      6512
      6497      6499      6511      6513      6497      6499      6511      6514
      6498      6497      6499      6500      6498      6497      6499      6501
      6498      6497      6499      6511      6499      6511      6514      6515
      6499      6511      6514      6516      6499      6511      6514      6517
      6500      6499      6511      6512      6500      6499      6511      6513
      6500      6499      6511      6514      6501      6499      6511      6512
      6501      6499      6511      6513      6501      6499      6511      6514
      6502      6505      6506      6507      6502      6505      6506      6508
      6503      6502      6505      6506      6504      6502      6505      6506
      6505      6506      6508      6509      6505      6506      6508      6510
      6505      6506      6508      6556      6506      6508      6556      6557
      6506      6508      6556      6558      6506      6508      6556      6559
      6507      6506      6508      6509      6507      6506      6508      6510
      6507      6506      6508      6556      6508      6556      6559      6560
      6508      6556      6559      6561      6508      6556      6559      6562
      6509      6508      6556      6557      6509      6508      6556      6558
      6509      6508      6556      6559      6510      6508      6556      6557
      6510      6508      6556      6558      6510      6508      6556      6559
      6511      6514      6517      6518      6511      6514      6517      6519
      6511      6514      6517      6520      6512      6511      6514      6515
      6512      6511      6514      6516      6512      6511      6514      6517
      6513      6511      6514      6515      6513      6511      6514      6516
      6513      6511      6514      6517      6514      6517      6520      6521
      6514      6517      6520      6522      6514      6517      6520      6523
      6515      6514      6517      6518      6515      6514      6517      6519
      6515      6514      6517      6520      6516      6514      6517      6518
      6516      6514      6517      6519      6516      6514      6517      6520
      6517      6520      6523      6524      6517      6520      6523      6525
      6517      6520      6523      6526      6518      6517      6520      6521
      6518      6517      6520      6522      6518      6517      6520      6523
      6519      6517      6520      6521      6519      6517      6520      6522
      6519      6517      6520      6523      6520      6523      6526      6527
      6520      6523      6526      6528      6520      6523      6526      6529
      6521      6520      6523      6524      6521      6520      6523      6525
      6521      6520      6523      6526      6522      6520      6523      6524
      6522      6520      6523      6525      6522      6520      6523      6526
      6523      6526      6529      6530      6523      6526      6529      6531
      6524      6523      6526      6527      6524      6523      6526      6528
      6524      6523      6526      6529      6525      6523      6526      6527
      6525      6523      6526      6528      6525      6523      6526      6529
      6526      6529      6531      6532      6526      6529      6531      6533
      6527      6526      6529      6530      6527      6526      6529      6531
      6528      6526      6529      6530      6528      6526      6529      6531
      6529      6531      6533      6534      6529      6531      6533      6535
      6529      6531      6533      6536      6530      6529      6531      6532
      6530      6529      6531      6533      6531      6533      6536      6537
      6531      6533      6536      6538      6532      6531      6533      6534
      6532      6531      6533      6535      6532      6531      6533      6536
      6533      6536      6538      6539      6533      6536      6538      6540
      6534      6533      6536      6537      6534      6533      6536      6538
      6535      6533      6536      6537      6535      6533      6536      6538
      6536      6538      6540      6541      6536      6538      6540      6542
      6536      6538      6540      6543      6537      6536      6538      6539
      6537      6536      6538      6540      6538      6540      6543      6544
      6538      6540      6543      6545      6538      6540      6543      6546
      6539      6538      6540      6541      6539      6538      6540      6542
      6539      6538      6540      6543      6540      6543      6546      6547
      6540      6543      6546      6548      6540      6543      6546      6549
      6541      6540      6543      6544      6541      6540      6543      6545
      6541      6540      6543      6546      6542      6540      6543      6544
      6542      6540      6543      6545      6542      6540      6543      6546
      6543      6546      6549      6550      6543      6546      6549      6551
      6543      6546      6549      6552      6544      6543      6546      6547
      6544      6543      6546      6548      6544      6543      6546      6549
      6545      6543      6546      6547      6545      6543      6546      6548
      6545      6543      6546      6549      6546      6549      6552      6553
      6546      6549      6552      6554      6546      6549      6552      6555
      6547      6546      6549      6550      6547      6546      6549      6551
      6547      6546      6549      6552      6548      6546      6549      6550
      6548      6546      6549      6551      6548      6546      6549      6552
      6550      6549      6552      6553      6550      6549      6552      6554
      6550      6549      6552      6555      6551      6549      6552      6553
      6551      6549      6552      6554      6551      6549      6552      6555
      6556      6559      6562      6563      6556      6559      6562      6564
      6556      6559      6562      6565      6557      6556      6559      6560
      6557      6556      6559      6561      6557      6556      6559      6562
      6558      6556      6559      6560      6558      6556      6559      6561
      6558      6556      6559      6562      6559      6562      6565      6566
      6559      6562      6565      6567      6559      6562      6565      6568
      6560      6559      6562      6563      6560      6559      6562      6564
      6560      6559      6562      6565      6561      6559      6562      6563
      6561      6559      6562      6564      6561      6559      6562      6565
      6562      6565      6568      6569      6562      6565      6568      6570
      6562      6565      6568      6571      6563      6562      6565      6566
      6563      6562      6565      6567      6563      6562      6565      6568
      6564      6562      6565      6566      6564      6562      6565      6567
      6564      6562      6565      6568      6565      6568      6571      6572
      6565      6568      6571      6573      6565      6568      6571      6574
      6566      6565      6568      6569      6566      6565      6568      6570
      6566      6565      6568      6571      6567      6565      6568      6569
      6567      6565      6568      6570      6567      6565      6568      6571
      6568      6571      6574      6575      6568      6571      6574      6576
      6568      6571      6574      6577      6569      6568      6571      6572
      6569      6568      6571      6573      6569      6568      6571      6574
      6570      6568      6571      6572      6570      6568      6571      6573
      6570      6568      6571      6574      6571      6574      6577      6578
      6571      6574      6577      6579      6571      6574      6577      6580
      6572      6571      6574      6575      6572      6571      6574      6576
      6572      6571      6574      6577      6573      6571      6574      6575
      6573      6571      6574      6576      6573      6571      6574      6577
      6574      6577      6580      6581      6574      6577      6580      6582
      6574      6577      6580      6583      6575      6574      6577      6578
      6575      6574      6577      6579      6575      6574      6577      6580
      6576      6574      6577      6578      6576      6574      6577      6579
      6576      6574      6577      6580      6577      6580      6583      6584
      6577      6580      6583      6585      6577      6580      6583      6586
      6578      6577      6580      6581      6578      6577      6580      6582
      6578      6577      6580      6583      6579      6577      6580      6581
      6579      6577      6580      6582      6579      6577      6580      6583
      6580      6583      6586      6587      6580      6583      6586      6588
      6580      6583      6586      6589      6581      6580      6583      6584
      6581      6580      6583      6585      6581      6580      6583      6586
      6582      6580      6583      6584      6582      6580      6583      6585
      6582      6580      6583      6586      6583      6586      6589      6590
      6583      6586      6589      6591      6583      6586      6589      6592
      6584      6583      6586      6587      6584      6583      6586      6588
      6584      6583      6586      6589      6585      6583      6586      6587
      6585      6583      6586      6588      6585      6583      6586      6589
      6586      6589      6592      6593      6586      6589      6592      6594
      6586      6589      6592      6595      6587      6586      6589      6590
      6587      6586      6589      6591      6587      6586      6589      6592
      6588      6586      6589      6590      6588      6586      6589      6591
      6588      6586      6589      6592      6589      6592      6595      6596
      6589      6592      6595      6597      6589      6592      6595      6598
      6590      6589      6592      6593      6590      6589      6592      6594
      6590      6589      6592      6595      6591      6589      6592      6593
      6591      6589      6592      6594      6591      6589      6592      6595
      6592      6595      6598      6599      6592      6595      6598      6600
      6592      6595      6598      6601      6593      6592      6595      6596
      6593      6592      6595      6597      6593      6592      6595      6598
      6594      6592      6595      6596      6594      6592      6595      6597
      6594      6592      6595      6598      6595      6598      6601      6602
      6595      6598      6601      6603      6595      6598      6601      6604
      6596      6595      6598      6599      6596      6595      6598      6600
      6596      6595      6598      6601      6597      6595      6598      6599
      6597      6595      6598      6600      6597      6595      6598      6601
      6599      6598      6601      6602      6599      6598      6601      6603
      6599      6598      6601      6604      6600      6598      6601      6602
      6600      6598      6601      6603      6600      6598      6601      6604
      6605      6609      6612      6613      6605      6609      6612      6614
      6605      6609      6612      6618      6606      6605      6609      6610
      6606      6605      6609      6611      6606      6605      6609      6612
      6607      6605      6609      6610      6607      6605      6609      6611
      6607      6605      6609      6612      6608      6605      6609      6610
      6608      6605      6609      6611      6608      6605      6609      6612
      6609      6612      6618      6615      6610      6609      6612      6613
      6610      6609      6612      6614      6610      6609      6612      6618
      6611      6609      6612      6613      6611      6609      6612      6614
      6611      6609      6612      6618      6612      6618      6615      6616
      6612      6618      6615      6617      6612      6618      6615      6619
      6613      6612      6618      6615      6614      6612      6618      6615
      6615      6619      6620      6621      6615      6619      6620      6622
      6615      6619      6620      6623      6616      6615      6619      6620
      6617      6615      6619      6620      6618      6615      6619      6620
      6619      6620      6623      6624      6619      6620      6623      6625
      6619      6620      6623      6631      6620      6623      6625      6626
      6620      6623      6631      6632      6620      6623      6631      6633
      6620      6623      6631      6634      6621      6620      6623      6624
      6621      6620      6623      6625      6621      6620      6623      6631
      6622      6620      6623      6624      6622      6620      6623      6625
      6622      6620      6623      6631      6623      6625      6626      6627
      6623      6625      6626      6628      6623      6631      6634      6635
      6624      6623      6625      6626      6624      6623      6631      6632
      6624      6623      6631      6633      6624      6623      6631      6634
      6625      6623      6631      6632      6625      6623      6631      6633
      6625      6623      6631      6634      6625      6626      6628      6629
      6625      6626      6628      6630      6625      6626      6628      6640
      6626      6625      6623      6631      6626      6628      6640      6641
      6626      6628      6640      6642      6626      6628      6640      6643
      6627      6626      6628      6629      6627      6626      6628      6630
      6627      6626      6628      6640      6628      6640      6643      6644
      6628      6640      6643      6645      6628      6640      6643      6646
      6629      6628      6640      6641      6629      6628      6640      6642
      6629      6628      6640      6643      6630      6628      6640      6641
      6630      6628      6640      6642      6630      6628      6640      6643
      6631      6634      6635      6636      6631      6634      6635      6637
      6632      6631      6634      6635      6633      6631      6634      6635
      6634      6635      6637      6638      6634      6635      6637      6639
      6634      6635      6637      6687      6635      6637      6687      6688
      6635      6637      6687      6689      6635      6637      6687      6690
      6636      6635      6637      6638      6636      6635      6637      6639
      6636      6635      6637      6687      6637      6687      6690      6691
      6637      6687      6690      6692      6637      6687      6690      6693
      6638      6637      6687      6688      6638      6637      6687      6689
      6638      6637      6687      6690      6639      6637      6687      6688
      6639      6637      6687      6689      6639      6637      6687      6690
      6640      6643      6646      6647      6640      6643      6646      6648
      6641      6640      6643      6644      6641      6640      6643      6645
      6641      6640      6643      6646      6642      6640      6643      6644
      6642      6640      6643      6645      6642      6640      6643      6646
      6643      6646      6648      6649      6643      6646      6648      6650
      6644      6643      6646      6647      6644      6643      6646      6648
      6645      6643      6646      6647      6645      6643      6646      6648
      6646      6648      6650      6651      6646      6648      6650      6652
      6646      6648      6650      6653      6647      6646      6648      6649
      6647      6646      6648      6650      6648      6650      6653      6654
      6648      6650      6653      6655      6649      6648      6650      6651
      6649      6648      6650      6652      6649      6648      6650      6653
      6650      6653      6655      6656      6650      6653      6655      6657
      6651      6650      6653      6654      6651      6650      6653      6655
      6652      6650      6653      6654      6652      6650      6653      6655
      6653      6655      6657      6658      6653      6655      6657      6659
      6653      6655      6657      6660      6654      6653      6655      6656
      6654      6653      6655      6657      6655      6657      6660      6661
      6655      6657      6660      6662      6656      6655      6657      6658
      6656      6655      6657      6659      6656      6655      6657      6660
      6657      6660      6662      6663      6657      6660      6662      6664
      6658      6657      6660      6661      6658      6657      6660      6662
      6659      6657      6660      6661      6659      6657      6660      6662
      6660      6662      6664      6665      6660      6662      6664      6666
      6660      6662      6664      6667      6661      6660      6662      6663
      6661      6660      6662      6664      6662      6664      6667      6668
      6662      6664      6667      6669      6663      6662      6664      6665
      6663      6662      6664      6666      6663      6662      6664      6667
      6664      6667      6669      6670      6664      6667      6669      6671
      6665      6664      6667      6668      6665      6664      6667      6669
      6666      6664      6667      6668      6666      6664      6667      6669
      6667      6669      6671      6672      6667      6669      6671      6673
      6667      6669      6671      6674      6668      6667      6669      6670
      6668      6667      6669      6671      6669      6671      6674      6675
      6669      6671      6674      6676      6669      6671      6674      6677
      6670      6669      6671      6672      6670      6669      6671      6673
      6670      6669      6671      6674      6671      6674      6677      6678
      6671      6674      6677      6679      6671      6674      6677      6680
      6672      6671      6674      6675      6672      6671      6674      6676
      6672      6671      6674      6677      6673      6671      6674      6675
      6673      6671      6674      6676      6673      6671      6674      6677
      6674      6677      6680      6681      6674      6677      6680      6682
      6674      6677      6680      6683      6675      6674      6677      6678
      6675      6674      6677      6679      6675      6674      6677      6680
      6676      6674      6677      6678      6676      6674      6677      6679
      6676      6674      6677      6680      6677      6680      6683      6684
      6677      6680      6683      6685      6677      6680      6683      6686
      6678      6677      6680      6681      6678      6677      6680      6682
      6678      6677      6680      6683      6679      6677      6680      6681
      6679      6677      6680      6682      6679      6677      6680      6683
      6681      6680      6683      6684      6681      6680      6683      6685
      6681      6680      6683      6686      6682      6680      6683      6684
      6682      6680      6683      6685      6682      6680      6683      6686
      6687      6690      6693      6694      6687      6690      6693      6695
      6687      6690      6693      6696      6688      6687      6690      6691
      6688      6687      6690      6692      6688      6687      6690      6693
      6689      6687      6690      6691      6689      6687      6690      6692
      6689      6687      6690      6693      6690      6693      6696      6697
      6690      6693      6696      6698      6690      6693      6696      6699
      6691      6690      6693      6694      6691      6690      6693      6695
      6691      6690      6693      6696      6692      6690      6693      6694
      6692      6690      6693      6695      6692      6690      6693      6696
      6693      6696      6699      6700      6693      6696      6699      6701
      6693      6696      6699      6702      6694      6693      6696      6697
      6694      6693      6696      6698      6694      6693      6696      6699
      6695      6693      6696      6697      6695      6693      6696      6698
      6695      6693      6696      6699      6696      6699      6702      6703
      6696      6699      6702      6704      6696      6699      6702      6705
      6697      6696      6699      6700      6697      6696      6699      6701
      6697      6696      6699      6702      6698      6696      6699      6700
      6698      6696      6699      6701      6698      6696      6699      6702
      6699      6702      6705      6706      6699      6702      6705      6707
      6699      6702      6705      6708      6700      6699      6702      6703
      6700      6699      6702      6704      6700      6699      6702      6705
      6701      6699      6702      6703      6701      6699      6702      6704
      6701      6699      6702      6705      6702      6705      6708      6709
      6702      6705      6708      6710      6702      6705      6708      6711
      6703      6702      6705      6706      6703      6702      6705      6707
      6703      6702      6705      6708      6704      6702      6705      6706
      6704      6702      6705      6707      6704      6702      6705      6708
      6705      6708      6711      6712      6705      6708      6711      6713
      6705      6708      6711      6714      6706      6705      6708      6709
      6706      6705      6708      6710      6706      6705      6708      6711
      6707      6705      6708      6709      6707      6705      6708      6710
      6707      6705      6708      6711      6708      6711      6714      6715
      6708      6711      6714      6716      6708      6711      6714      6717
      6709      6708      6711      6712      6709      6708      6711      6713
      6709      6708      6711      6714      6710      6708      6711      6712
      6710      6708      6711      6713      6710      6708      6711      6714
      6711      6714      6717      6718      6711      6714      6717      6719
      6711      6714      6717      6720      6712      6711      6714      6715
      6712      6711      6714      6716      6712      6711      6714      6717
      6713      6711      6714      6715      6713      6711      6714      6716
      6713      6711      6714      6717      6714      6717      6720      6721
      6714      6717      6720      6722      6714      6717      6720      6723
      6715      6714      6717      6718      6715      6714      6717      6719
      6715      6714      6717      6720      6716      6714      6717      6718
      6716      6714      6717      6719      6716      6714      6717      6720
      6717      6720      6723      6724      6717      6720      6723      6725
      6717      6720      6723      6726      6718      6717      6720      6721
      6718      6717      6720      6722      6718      6717      6720      6723
      6719      6717      6720      6721      6719      6717      6720      6722
      6719      6717      6720      6723      6720      6723      6726      6727
      6720      6723      6726      6728      6720      6723      6726      6729
      6721      6720      6723      6724      6721      6720      6723      6725
      6721      6720      6723      6726      6722      6720      6723      6724
      6722      6720      6723      6725      6722      6720      6723      6726
      6723      6726      6729      6730      6723      6726      6729      6731
      6723      6726      6729      6732      6724      6723      6726      6727
      6724      6723      6726      6728      6724      6723      6726      6729
      6725      6723      6726      6727      6725      6723      6726      6728
      6725      6723      6726      6729      6726      6729      6732      6733
      6726      6729      6732      6734      6726      6729      6732      6735
      6727      6726      6729      6730      6727      6726      6729      6731
      6727      6726      6729      6732      6728      6726      6729      6730
      6728      6726      6729      6731      6728      6726      6729      6732
      6730      6729      6732      6733      6730      6729      6732      6734
      6730      6729      6732      6735      6731      6729      6732      6733
      6731      6729      6732      6734      6731      6729      6732      6735
      6736      6740      6743      6744      6736      6740      6743      6745
      6736      6740      6743      6749      6737      6736      6740      6741
      6737      6736      6740      6742      6737      6736      6740      6743
      6738      6736      6740      6741      6738      6736      6740      6742
      6738      6736      6740      6743      6739      6736      6740      6741
      6739      6736      6740      6742      6739      6736      6740      6743
      6740      6743      6749      6746      6741      6740      6743      6744
      6741      6740      6743      6745      6741      6740      6743      6749
      6742      6740      6743      6744      6742      6740      6743      6745
      6742      6740      6743      6749      6743      6749      6746      6747
      6743      6749      6746      6748      6743      6749      6746      6750
      6744      6743      6749      6746      6745      6743      6749      6746
      6746      6750      6751      6752      6746      6750      6751      6753
      6746      6750      6751      6754      6747      6746      6750      6751
      6748      6746      6750      6751      6749      6746      6750      6751
      6750      6751      6754      6755      6750      6751      6754      6756
      6750      6751      6754      6762      6751      6754      6756      6757
      6751      6754      6762      6763      6751      6754      6762      6764
      6751      6754      6762      6765      6752      6751      6754      6755
      6752      6751      6754      6756      6752      6751      6754      6762
      6753      6751      6754      6755      6753      6751      6754      6756
      6753      6751      6754      6762      6754      6756      6757      6758
      6754      6756      6757      6759      6754      6762      6765      6766
      6755      6754      6756      6757      6755      6754      6762      6763
      6755      6754      6762      6764      6755      6754      6762      6765
      6756      6754      6762      6763      6756      6754      6762      6764
      6756      6754      6762      6765      6756      6757      6759      6760
      6756      6757      6759      6761      6756      6757      6759      6771
      6757      6756      6754      6762      6757      6759      6771      6772
      6757      6759      6771      6773      6757      6759      6771      6774
      6758      6757      6759      6760      6758      6757      6759      6761
      6758      6757      6759      6771      6759      6771      6774      6775
      6759      6771      6774      6776      6759      6771      6774      6777
      6760      6759      6771      6772      6760      6759      6771      6773
      6760      6759      6771      6774      6761      6759      6771      6772
      6761      6759      6771      6773      6761      6759      6771      6774
      6762      6765      6766      6767      6762      6765      6766      6768
      6763      6762      6765      6766      6764      6762      6765      6766
      6765      6766      6768      6769      6765      6766      6768      6770
      6765      6766      6768      6818      6766      6768      6818      6819
      6766      6768      6818      6820      6766      6768      6818      6821
      6767      6766      6768      6769      6767      6766      6768      6770
      6767      6766      6768      6818      6768      6818      6821      6822
      6768      6818      6821      6823      6768      6818      6821      6824
      6769      6768      6818      6819      6769      6768      6818      6820
      6769      6768      6818      6821      6770      6768      6818      6819
      6770      6768      6818      6820      6770      6768      6818      6821
      6771      6774      6777      6778      6771      6774      6777      6779
      6772      6771      6774      6775      6772      6771      6774      6776
      6772      6771      6774      6777      6773      6771      6774      6775
      6773      6771      6774      6776      6773      6771      6774      6777
      6774      6777      6779      6780      6774      6777      6779      6781
      6775      6774      6777      6778      6775      6774      6777      6779
      6776      6774      6777      6778      6776      6774      6777      6779
      6777      6779      6781      6782      6777      6779      6781      6783
      6777      6779      6781      6784      6778      6777      6779      6780
      6778      6777      6779      6781      6779      6781      6784      6785
      6779      6781      6784      6786      6780      6779      6781      6782
      6780      6779      6781      6783      6780      6779      6781      6784
      6781      6784      6786      6787      6781      6784      6786      6788
      6782      6781      6784      6785      6782      6781      6784      6786
      6783      6781      6784      6785      6783      6781      6784      6786
      6784      6786      6788      6789      6784      6786      6788      6790
      6784      6786      6788      6791      6785      6784      6786      6787
      6785      6784      6786      6788      6786      6788      6791      6792
      6786      6788      6791      6793      6787      6786      6788      6789
      6787      6786      6788      6790      6787      6786      6788      6791
      6788      6791      6793      6794      6788      6791      6793      6795
      6789      6788      6791      6792      6789      6788      6791      6793
      6790      6788      6791      6792      6790      6788      6791      6793
      6791      6793      6795      6796      6791      6793      6795      6797
      6791      6793      6795      6798      6792      6791      6793      6794
      6792      6791      6793      6795      6793      6795      6798      6799
      6793      6795      6798      6800      6794      6793      6795      6796
      6794      6793      6795      6797      6794      6793      6795      6798
      6795      6798      6800      6801      6795      6798      6800      6802
      6796      6795      6798      6799      6796      6795      6798      6800
      6797      6795      6798      6799      6797      6795      6798      6800
      6798      6800      6802      6803      6798      6800      6802      6804
      6798      6800      6802      6805      6799      6798      6800      6801
      6799      6798      6800      6802      6800      6802      6805      6806
      6800      6802      6805      6807      6800      6802      6805      6808
      6801      6800      6802      6803      6801      6800      6802      6804
      6801      6800      6802      6805      6802      6805      6808      6809
      6802      6805      6808      6810      6802      6805      6808      6811
      6803      6802      6805      6806      6803      6802      6805      6807
      6803      6802      6805      6808      6804      6802      6805      6806
      6804      6802      6805      6807      6804      6802      6805      6808
      6805      6808      6811      6812      6805      6808      6811      6813
      6805      6808      6811      6814      6806      6805      6808      6809
      6806      6805      6808      6810      6806      6805      6808      6811
      6807      6805      6808      6809      6807      6805      6808      6810
      6807      6805      6808      6811      6808      6811      6814      6815
      6808      6811      6814      6816      6808      6811      6814      6817
      6809      6808      6811      6812      6809      6808      6811      6813
      6809      6808      6811      6814      6810      6808      6811      6812
      6810      6808      6811      6813      6810      6808      6811      6814
      6812      6811      6814      6815      6812      6811      6814      6816
      6812      6811      6814      6817      6813      6811      6814      6815
      6813      6811      6814      6816      6813      6811      6814      6817
      6818      6821      6824      6825      6818      6821      6824      6826
      6818      6821      6824      6827      6819      6818      6821      6822
      6819      6818      6821      6823      6819      6818      6821      6824
      6820      6818      6821      6822      6820      6818      6821      6823
      6820      6818      6821      6824      6821      6824      6827      6828
      6821      6824      6827      6829      6821      6824      6827      6830
      6822      6821      6824      6825      6822      6821      6824      6826
      6822      6821      6824      6827      6823      6821      6824      6825
      6823      6821      6824      6826      6823      6821      6824      6827
      6824      6827      6830      6831      6824      6827      6830      6832
      6824      6827      6830      6833      6825      6824      6827      6828
      6825      6824      6827      6829      6825      6824      6827      6830
      6826      6824      6827      6828      6826      6824      6827      6829
      6826      6824      6827      6830      6827      6830      6833      6834
      6827      6830      6833      6835      6827      6830      6833      6836
      6828      6827      6830      6831      6828      6827      6830      6832
      6828      6827      6830      6833      6829      6827      6830      6831
      6829      6827      6830      6832      6829      6827      6830      6833
      6830      6833      6836      6837      6830      6833      6836      6838
      6830      6833      6836      6839      6831      6830      6833      6834
      6831      6830      6833      6835      6831      6830      6833      6836
      6832      6830      6833      6834      6832      6830      6833      6835
      6832      6830      6833      6836      6833      6836      6839      6840
      6833      6836      6839      6841      6833      6836      6839      6842
      6834      6833      6836      6837      6834      6833      6836      6838
      6834      6833      6836      6839      6835      6833      6836      6837
      6835      6833      6836      6838      6835      6833      6836      6839
      6836      6839      6842      6843      6836      6839      6842      6844
      6836      6839      6842      6845      6837      6836      6839      6840
      6837      6836      6839      6841      6837      6836      6839      6842
      6838      6836      6839      6840      6838      6836      6839      6841
      6838      6836      6839      6842      6839      6842      6845      6846
      6839      6842      6845      6847      6839      6842      6845      6848
      6840      6839      6842      6843      6840      6839      6842      6844
      6840      6839      6842      6845      6841      6839      6842      6843
      6841      6839      6842      6844      6841      6839      6842      6845
      6842      6845      6848      6849      6842      6845      6848      6850
      6842      6845      6848      6851      6843      6842      6845      6846
      6843      6842      6845      6847      6843      6842      6845      6848
      6844      6842      6845      6846      6844      6842      6845      6847
      6844      6842      6845      6848      6845      6848      6851      6852
      6845      6848      6851      6853      6845      6848      6851      6854
      6846      6845      6848      6849      6846      6845      6848      6850
      6846      6845      6848      6851      6847      6845      6848      6849
      6847      6845      6848      6850      6847      6845      6848      6851
      6848      6851      6854      6855      6848      6851      6854      6856
      6848      6851      6854      6857      6849      6848      6851      6852
      6849      6848      6851      6853      6849      6848      6851      6854
      6850      6848      6851      6852      6850      6848      6851      6853
      6850      6848      6851      6854      6851      6854      6857      6858
      6851      6854      6857      6859      6851      6854      6857      6860
      6852      6851      6854      6855      6852      6851      6854      6856
      6852      6851      6854      6857      6853      6851      6854      6855
      6853      6851      6854      6856      6853      6851      6854      6857
      6854      6857      6860      6861      6854      6857      6860      6862
      6854      6857      6860      6863      6855      6854      6857      6858
      6855      6854      6857      6859      6855      6854      6857      6860
      6856      6854      6857      6858      6856      6854      6857      6859
      6856      6854      6857      6860      6857      6860      6863      6864
      6857      6860      6863      6865      6857      6860      6863      6866
      6858      6857      6860      6861      6858      6857      6860      6862
      6858      6857      6860      6863      6859      6857      6860      6861
      6859      6857      6860      6862      6859      6857      6860      6863
      6861      6860      6863      6864      6861      6860      6863      6865
      6861      6860      6863      6866      6862      6860      6863      6864
      6862      6860      6863      6865      6862      6860      6863      6866
      6867      6871      6874      6875      6867      6871      6874      6876
      6867      6871      6874      6880      6868      6867      6871      6872
      6868      6867      6871      6873      6868      6867      6871      6874
      6869      6867      6871      6872      6869      6867      6871      6873
      6869      6867      6871      6874      6870      6867      6871      6872
      6870      6867      6871      6873      6870      6867      6871      6874
      6871      6874      6880      6877      6872      6871      6874      6875
      6872      6871      6874      6876      6872      6871      6874      6880
      6873      6871      6874      6875      6873      6871      6874      6876
      6873      6871      6874      6880      6874      6880      6877      6878
      6874      6880      6877      6879      6874      6880      6877      6881
      6875      6874      6880      6877      6876      6874      6880      6877
      6877      6881      6882      6883      6877      6881      6882      6884
      6877      6881      6882      6885      6878      6877      6881      6882
      6879      6877      6881      6882      6880      6877      6881      6882
      6881      6882      6885      6886      6881      6882      6885      6887
      6881      6882      6885      6893      6882      6885      6887      6888
      6882      6885      6893      6894      6882      6885      6893      6895
      6882      6885      6893      6896      6883      6882      6885      6886
      6883      6882      6885      6887      6883      6882      6885      6893
      6884      6882      6885      6886      6884      6882      6885      6887
      6884      6882      6885      6893      6885      6887      6888      6889
      6885      6887      6888      6890      6885      6893      6896      6897
      6886      6885      6887      6888      6886      6885      6893      6894
      6886      6885      6893      6895      6886      6885      6893      6896
      6887      6885      6893      6894      6887      6885      6893      6895
      6887      6885      6893      6896      6887      6888      6890      6891
      6887      6888      6890      6892      6887      6888      6890      6902
      6888      6887      6885      6893      6888      6890      6902      6903
      6888      6890      6902      6904      6888      6890      6902      6905
      6889      6888      6890      6891      6889      6888      6890      6892
      6889      6888      6890      6902      6890      6902      6905      6906
      6890      6902      6905      6907      6890      6902      6905      6908
      6891      6890      6902      6903      6891      6890      6902      6904
      6891      6890      6902      6905      6892      6890      6902      6903
      6892      6890      6902      6904      6892      6890      6902      6905
      6893      6896      6897      6898      6893      6896      6897      6899
      6894      6893      6896      6897      6895      6893      6896      6897
      6896      6897      6899      6900      6896      6897      6899      6901
      6896      6897      6899      6949      6897      6899      6949      6950
      6897      6899      6949      6951      6897      6899      6949      6952
      6898      6897      6899      6900      6898      6897      6899      6901
      6898      6897      6899      6949      6899      6949      6952      6953
      6899      6949      6952      6954      6899      6949      6952      6955
      6900      6899      6949      6950      6900      6899      6949      6951
      6900      6899      6949      6952      6901      6899      6949      6950
      6901      6899      6949      6951      6901      6899      6949      6952
      6902      6905      6908      6909      6902      6905      6908      6910
      6902      6905      6908      6911      6903      6902      6905      6906
      6903      6902      6905      6907      6903      6902      6905      6908
      6904      6902      6905      6906      6904      6902      6905      6907
      6904      6902      6905      6908      6905      6908      6911      6912
      6905      6908      6911      6913      6905      6908      6911      6914
      6906      6905      6908      6909      6906      6905      6908      6910
      6906      6905      6908      6911      6907      6905      6908      6909
      6907      6905      6908      6910      6907      6905      6908      6911
      6908      6911      6914      6915      6908      6911      6914      6916
      6908      6911      6914      6917      6909      6908      6911      6912
      6909      6908      6911      6913      6909      6908      6911      6914
      6910      6908      6911      6912      6910      6908      6911      6913
      6910      6908      6911      6914      6911      6914      6917      6918
      6911      6914      6917      6919      6911      6914      6917      6920
      6912      6911      6914      6915      6912      6911      6914      6916
      6912      6911      6914      6917      6913      6911      6914      6915
      6913      6911      6914      6916      6913      6911      6914      6917
      6914      6917      6920      6921      6914      6917      6920      6922
      6915      6914      6917      6918      6915      6914      6917      6919
      6915      6914      6917      6920      6916      6914      6917      6918
      6916      6914      6917      6919      6916      6914      6917      6920
      6917      6920      6922      6923      6917      6920      6922      6924
      6918      6917      6920      6921      6918      6917      6920      6922
      6919      6917      6920      6921      6919      6917      6920      6922
      6920      6922      6924      6925      6920      6922      6924      6926
      6920      6922      6924      6927      6921      6920      6922      6923
      6921      6920      6922      6924      6922      6924      6927      6928
      6922      6924      6927      6929      6922      6924      6927      6930
      6923      6922      6924      6925      6923      6922      6924      6926
      6923      6922      6924      6927      6924      6927      6930      6931
      6924      6927      6930      6932      6924      6927      6930      6933
      6925      6924      6927      6928      6925      6924      6927      6929
      6925      6924      6927      6930      6926      6924      6927      6928
      6926      6924      6927      6929      6926      6924      6927      6930
      6927      6930      6933      6934      6927      6930      6933      6935
      6927      6930      6933      6936      6928      6927      6930      6931
      6928      6927      6930      6932      6928      6927      6930      6933
      6929      6927      6930      6931      6929      6927      6930      6932
      6929      6927      6930      6933      6930      6933      6936      6937
      6930      6933      6936      6938      6930      6933      6936      6939
      6931      6930      6933      6934      6931      6930      6933      6935
      6931      6930      6933      6936      6932      6930      6933      6934
      6932      6930      6933      6935      6932      6930      6933      6936
      6933      6936      6939      6940      6933      6936      6939      6941
      6933      6936      6939      6942      6934      6933      6936      6937
      6934      6933      6936      6938      6934      6933      6936      6939
      6935      6933      6936      6937      6935      6933      6936      6938
      6935      6933      6936      6939      6936      6939      6942      6943
      6936      6939      6942      6944      6936      6939      6942      6945
      6937      6936      6939      6940      6937      6936      6939      6941
      6937      6936      6939      6942      6938      6936      6939      6940
      6938      6936      6939      6941      6938      6936      6939      6942
      6939      6942      6945      6946      6939      6942      6945      6947
      6939      6942      6945      6948      6940      6939      6942      6943
      6940      6939      6942      6944      6940      6939      6942      6945
      6941      6939      6942      6943      6941      6939      6942      6944
      6941      6939      6942      6945      6943      6942      6945      6946
      6943      6942      6945      6947      6943      6942      6945      6948
      6944      6942      6945      6946      6944      6942      6945      6947
      6944      6942      6945      6948      6949      6952      6955      6956
      6949      6952      6955      6957      6949      6952      6955      6958
      6950      6949      6952      6953      6950      6949      6952      6954
      6950      6949      6952      6955      6951      6949      6952      6953
      6951      6949      6952      6954      6951      6949      6952      6955
      6952      6955      6958      6959      6952      6955      6958      6960
      6952      6955      6958      6961      6953      6952      6955      6956
      6953      6952      6955      6957      6953      6952      6955      6958
      6954      6952      6955      6956      6954      6952      6955      6957
      6954      6952      6955      6958      6955      6958      6961      6962
      6955      6958      6961      6963      6955      6958      6961      6964
      6956      6955      6958      6959      6956      6955      6958      6960
      6956      6955      6958      6961      6957      6955      6958      6959
      6957      6955      6958      6960      6957      6955      6958      6961
      6958      6961      6964      6965      6958      6961      6964      6966
      6958      6961      6964      6967      6959      6958      6961      6962
      6959      6958      6961      6963      6959      6958      6961      6964
      6960      6958      6961      6962      6960      6958      6961      6963
      6960      6958      6961      6964      6961      6964      6967      6968
      6961      6964      6967      6969      6961      6964      6967      6970
      6962      6961      6964      6965      6962      6961      6964      6966
      6962      6961      6964      6967      6963      6961      6964      6965
      6963      6961      6964      6966      6963      6961      6964      6967
      6964      6967      6970      6971      6964      6967      6970      6972
      6964      6967      6970      6973      6965      6964      6967      6968
      6965      6964      6967      6969      6965      6964      6967      6970
      6966      6964      6967      6968      6966      6964      6967      6969
      6966      6964      6967      6970      6967      6970      6973      6974
      6967      6970      6973      6975      6967      6970      6973      6976
      6968      6967      6970      6971      6968      6967      6970      6972
      6968      6967      6970      6973      6969      6967      6970      6971
      6969      6967      6970      6972      6969      6967      6970      6973
      6970      6973      6976      6977      6970      6973      6976      6978
      6970      6973      6976      6979      6971      6970      6973      6974
      6971      6970      6973      6975      6971      6970      6973      6976
      6972      6970      6973      6974      6972      6970      6973      6975
      6972      6970      6973      6976      6973      6976      6979      6980
      6973      6976      6979      6981      6973      6976      6979      6982
      6974      6973      6976      6977      6974      6973      6976      6978
      6974      6973      6976      6979      6975      6973      6976      6977
      6975      6973      6976      6978      6975      6973      6976      6979
      6976      6979      6982      6983      6976      6979      6982      6984
      6976      6979      6982      6985      6977      6976      6979      6980
      6977      6976      6979      6981      6977      6976      6979      6982
      6978      6976      6979      6980      6978      6976      6979      6981
      6978      6976      6979      6982      6979      6982      6985      6986
      6979      6982      6985      6987      6979      6982      6985      6988
      6980      6979      6982      6983      6980      6979      6982      6984
      6980      6979      6982      6985      6981      6979      6982      6983
      6981      6979      6982      6984      6981      6979      6982      6985
      6982      6985      6988      6989      6982      6985      6988      6990
      6982      6985      6988      6991      6983      6982      6985      6986
      6983      6982      6985      6987      6983      6982      6985      6988
      6984      6982      6985      6986      6984      6982      6985      6987
      6984      6982      6985      6988      6985      6988      6991      6992
      6985      6988      6991      6993      6985      6988      6991      6994
      6986      6985      6988      6989      6986      6985      6988      6990
      6986      6985      6988      6991      6987      6985      6988      6989
      6987      6985      6988      6990      6987      6985      6988      6991
      6988      6991      6994      6995      6988      6991      6994      6996
      6988      6991      6994      6997      6989      6988      6991      6992
      6989      6988      6991      6993      6989      6988      6991      6994
      6990      6988      6991      6992      6990      6988      6991      6993
      6990      6988      6991      6994      6992      6991      6994      6995
      6992      6991      6994      6996      6992      6991      6994      6997
      6993      6991      6994      6995      6993      6991      6994      6996
      6993      6991      6994      6997      6998      7002      7005      7006
      6998      7002      7005      7007      6998      7002      7005      7011
      6999      6998      7002      7003      6999      6998      7002      7004
      6999      6998      7002      7005      7000      6998      7002      7003
      7000      6998      7002      7004      7000      6998      7002      7005
      7001      6998      7002      7003      7001      6998      7002      7004
      7001      6998      7002      7005      7002      7005      7011      7008
      7003      7002      7005      7006      7003      7002      7005      7007
      7003      7002      7005      7011      7004      7002      7005      7006
      7004      7002      7005      7007      7004      7002      7005      7011
      7005      7011      7008      7009      7005      7011      7008      7010
      7005      7011      7008      7012      7006      7005      7011      7008
      7007      7005      7011      7008      7008      7012      7013      7014
      7008      7012      7013      7015      7008      7012      7013      7016
      7009      7008      7012      7013      7010      7008      7012      7013
      7011      7008      7012      7013      7012      7013      7016      7017
      7012      7013      7016      7018      7012      7013      7016      7024
      7013      7016      7018      7019      7013      7016      7024      7025
      7013      7016      7024      7026      7013      7016      7024      7027
      7014      7013      7016      7017      7014      7013      7016      7018
      7014      7013      7016      7024      7015      7013      7016      7017
      7015      7013      7016      7018      7015      7013      7016      7024
      7016      7018      7019      7020      7016      7018      7019      7021
      7016      7024      7027      7028      7017      7016      7018      7019
      7017      7016      7024      7025      7017      7016      7024      7026
      7017      7016      7024      7027      7018      7016      7024      7025
      7018      7016      7024      7026      7018      7016      7024      7027
      7018      7019      7021      7022      7018      7019      7021      7023
      7018      7019      7021      7033      7019      7018      7016      7024
      7019      7021      7033      7034      7019      7021      7033      7035
      7019      7021      7033      7036      7020      7019      7021      7022
      7020      7019      7021      7023      7020      7019      7021      7033
      7021      7033      7036      7037      7021      7033      7036      7038
      7021      7033      7036      7039      7022      7021      7033      7034
      7022      7021      7033      7035      7022      7021      7033      7036
      7023      7021      7033      7034      7023      7021      7033      7035
      7023      7021      7033      7036      7024      7027      7028      7029
      7024      7027      7028      7030      7025      7024      7027      7028
      7026      7024      7027      7028      7027      7028      7030      7031
      7027      7028      7030      7032      7027      7028      7030      7080
      7028      7030      7080      7081      7028      7030      7080      7082
      7028      7030      7080      7083      7029      7028      7030      7031
      7029      7028      7030      7032      7029      7028      7030      7080
      7030      7080      7083      7084      7030      7080      7083      7085
      7030      7080      7083      7086      7031      7030      7080      7081
      7031      7030      7080      7082      7031      7030      7080      7083
      7032      7030      7080      7081      7032      7030      7080      7082
      7032      7030      7080      7083      7033      7036      7039      7040
      7033      7036      7039      7041      7034      7033      7036      7037
      7034      7033      7036      7038      7034      7033      7036      7039
      7035      7033      7036      7037      7035      7033      7036      7038
      7035      7033      7036      7039      7036      7039      7041      7042
      7036      7039      7041      7043      7037      7036      7039      7040
      7037      7036      7039      7041      7038      7036      7039      7040
      7038      7036      7039      7041      7039      7041      7043      7044
      7039      7041      7043      7045      7039      7041      7043      7046
      7040      7039      7041      7042      7040      7039      7041      7043
      7041      7043      7046      7047      7041      7043      7046      7048
      7042      7041      7043      7044      7042      7041      7043      7045
      7042      7041      7043      7046      7043      7046      7048      7049
      7043      7046      7048      7050      7044      7043      7046      7047
      7044      7043      7046      7048      7045      7043      7046      7047
      7045      7043      7046      7048      7046      7048      7050      7051
      7046      7048      7050      7052      7046      7048      7050      7053
      7047      7046      7048      7049      7047      7046      7048      7050
      7048      7050      7053      7054      7048      7050      7053      7055
      7049      7048      7050      7051      7049      7048      7050      7052
      7049      7048      7050      7053      7050      7053      7055      7056
      7050      7053      7055      7057      7051      7050      7053      7054
      7051      7050      7053      7055      7052      7050      7053      7054
      7052      7050      7053      7055      7053      7055      7057      7058
      7053      7055      7057      7059      7053      7055      7057      7060
      7054      7053      7055      7056      7054      7053      7055      7057
      7055      7057      7060      7061      7055      7057      7060      7062
      7056      7055      7057      7058      7056      7055      7057      7059
      7056      7055      7057      7060      7057      7060      7062      7063
      7057      7060      7062      7064      7058      7057      7060      7061
      7058      7057      7060      7062      7059      7057      7060      7061
      7059      7057      7060      7062      7060      7062      7064      7065
      7060      7062      7064      7066      7060      7062      7064      7067
      7061      7060      7062      7063      7061      7060      7062      7064
      7062      7064      7067      7068      7062      7064      7067      7069
      7062      7064      7067      7070      7063      7062      7064      7065
      7063      7062      7064      7066      7063      7062      7064      7067
      7064      7067      7070      7071      7064      7067      7070      7072
      7064      7067      7070      7073      7065      7064      7067      7068
      7065      7064      7067      7069      7065      7064      7067      7070
      7066      7064      7067      7068      7066      7064      7067      7069
      7066      7064      7067      7070      7067      7070      7073      7074
      7067      7070      7073      7075      7067      7070      7073      7076
      7068      7067      7070      7071      7068      7067      7070      7072
      7068      7067      7070      7073      7069      7067      7070      7071
      7069      7067      7070      7072      7069      7067      7070      7073
      7070      7073      7076      7077      7070      7073      7076      7078
      7070      7073      7076      7079      7071      7070      7073      7074
      7071      7070      7073      7075      7071      7070      7073      7076
      7072      7070      7073      7074      7072      7070      7073      7075
      7072      7070      7073      7076      7074      7073      7076      7077
      7074      7073      7076      7078      7074      7073      7076      7079
      7075      7073      7076      7077      7075      7073      7076      7078
      7075      7073      7076      7079      7080      7083      7086      7087
      7080      7083      7086      7088      7080      7083      7086      7089
      7081      7080      7083      7084      7081      7080      7083      7085
      7081      7080      7083      7086      7082      7080      7083      7084
      7082      7080      7083      7085      7082      7080      7083      7086
      7083      7086      7089      7090      7083      7086      7089      7091
      7083      7086      7089      7092      7084      7083      7086      7087
      7084      7083      7086      7088      7084      7083      7086      7089
      7085      7083      7086      7087      7085      7083      7086      7088
      7085      7083      7086      7089      7086      7089      7092      7093
      7086      7089      7092      7094      7086      7089      7092      7095
      7087      7086      7089      7090      7087      7086      7089      7091
      7087      7086      7089      7092      7088      7086      7089      7090
      7088      7086      7089      7091      7088      7086      7089      7092
      7089      7092      7095      7096      7089      7092      7095      7097
      7089      7092      7095      7098      7090      7089      7092      7093
      7090      7089      7092      7094      7090      7089      7092      7095
      7091      7089      7092      7093      7091      7089      7092      7094
      7091      7089      7092      7095      7092      7095      7098      7099
      7092      7095      7098      7100      7092      7095      7098      7101
      7093      7092      7095      7096      7093      7092      7095      7097
      7093      7092      7095      7098      7094      7092      7095      7096
      7094      7092      7095      7097      7094      7092      7095      7098
      7095      7098      7101      7102      7095      7098      7101      7103
      7095      7098      7101      7104      7096      7095      7098      7099
      7096      7095      7098      7100      7096      7095      7098      7101
      7097      7095      7098      7099      7097      7095      7098      7100
      7097      7095      7098      7101      7098      7101      7104      7105
      7098      7101      7104      7106      7098      7101      7104      7107
      7099      7098      7101      7102      7099      7098      7101      7103
      7099      7098      7101      7104      7100      7098      7101      7102
      7100      7098      7101      7103      7100      7098      7101      7104
      7101      7104      7107      7108      7101      7104      7107      7109
      7101      7104      7107      7110      7102      7101      7104      7105
      7102      7101      7104      7106      7102      7101      7104      7107
      7103      7101      7104      7105      7103      7101      7104      7106
      7103      7101      7104      7107      7104      7107      7110      7111
      7104      7107      7110      7112      7104      7107      7110      7113
      7105      7104      7107      7108      7105      7104      7107      7109
      7105      7104      7107      7110      7106      7104      7107      7108
      7106      7104      7107      7109      7106      7104      7107      7110
      7107      7110      7113      7114      7107      7110      7113      7115
      7107      7110      7113      7116      7108      7107      7110      7111
      7108      7107      7110      7112      7108      7107      7110      7113
      7109      7107      7110      7111      7109      7107      7110      7112
      7109      7107      7110      7113      7110      7113      7116      7117
      7110      7113      7116      7118      7110      7113      7116      7119
      7111      7110      7113      7114      7111      7110      7113      7115
      7111      7110      7113      7116      7112      7110      7113      7114
      7112      7110      7113      7115      7112      7110      7113      7116
      7113      7116      7119      7120      7113      7116      7119      7121
      7113      7116      7119      7122      7114      7113      7116      7117
      7114      7113      7116      7118      7114      7113      7116      7119
      7115      7113      7116      7117      7115      7113      7116      7118
      7115      7113      7116      7119      7116      7119      7122      7123
      7116      7119      7122      7124      7116      7119      7122      7125
      7117      7116      7119      7120      7117      7116      7119      7121
      7117      7116      7119      7122      7118      7116      7119      7120
      7118      7116      7119      7121      7118      7116      7119      7122
      7119      7122      7125      7126      7119      7122      7125      7127
      7119      7122      7125      7128      7120      7119      7122      7123
      7120      7119      7122      7124      7120      7119      7122      7125
      7121      7119      7122      7123      7121      7119      7122      7124
      7121      7119      7122      7125      7123      7122      7125      7126
      7123      7122      7125      7127      7123      7122      7125      7128
      7124      7122      7125      7126      7124      7122      7125      7127
      7124      7122      7125      7128      7129      7130      7145      7146
      7129      7130      7145      7147      7129      7130      7145      7151
      7130      7129      7133      7134      7130      7129      7133      7135
      7130      7129      7133      7136      7130      7129      7137      7138
      7130      7129      7137      7139      7130      7129      7137      7140
      7130      7129      7141      7142      7130      7129      7141      7143
      7130      7129      7141      7144      7130      7145      7151      7148
      7131      7130      7129      7133      7131      7130      7129      7137
      7131      7130      7129      7141      7131      7130      7145      7146
      7131      7130      7145      7147      7131      7130      7145      7151
      7132      7130      7129      7133      7132      7130      7129      7137
      7132      7130      7129      7141      7132      7130      7145      7146
      7132      7130      7145      7147      7132      7130      7145      7151
      7133      7129      7130      7145      7133      7129      7137      7138
      7133      7129      7137      7139      7133      7129      7137      7140
      7133      7129      7141      7142      7133      7129      7141      7143
      7133      7129      7141      7144      7134      7133      7129      7137
      7134      7133      7129      7141      7135      7133      7129      7137
      7135      7133      7129      7141      7136      7133      7129      7137
      7136      7133      7129      7141      7137      7129      7130      7145
      7137      7129      7141      7142      7137      7129      7141      7143
      7137      7129      7141      7144      7138      7137      7129      7141
      7139      7137      7129      7141      7140      7137      7129      7141
      7141      7129      7130      7145      7145      7151      7148      7149
      7145      7151      7148      7150      7145      7151      7148      7152
      7146      7145      7151      7148      7147      7145      7151      7148
      7148      7152      7153      7154      7148      7152      7153      7155
      7148      7152      7153      7156      7149      7148      7152      7153
      7150      7148      7152      7153      7151      7148      7152      7153
      7152      7153      7156      7157      7152      7153      7156      7158
      7152      7153      7156      7164      7153      7156      7158      7159
      7153      7156      7164      7165      7153      7156      7164      7166
      7153      7156      7164      7167      7154      7153      7156      7157
      7154      7153      7156      7158      7154      7153      7156      7164
      7155      7153      7156      7157      7155      7153      7156      7158
      7155      7153      7156      7164      7156      7158      7159      7160
      7156      7158      7159      7161      7156      7164      7167      7168
      7157      7156      7158      7159      7157      7156      7164      7165
      7157      7156      7164      7166      7157      7156      7164      7167
      7158      7156      7164      7165      7158      7156      7164      7166
      7158      7156      7164      7167      7158      7159      7161      7162
      7158      7159      7161      7163      7158      7159      7161      7173
      7159      7158      7156      7164      7159      7161      7173      7174
      7159      7161      7173      7175      7159      7161      7173      7176
      7160      7159      7161      7162      7160      7159      7161      7163
      7160      7159      7161      7173      7161      7173      7176      7177
      7161      7173      7176      7178      7161      7173      7176      7179
      7162      7161      7173      7174      7162      7161      7173      7175
      7162      7161      7173      7176      7163      7161      7173      7174
      7163      7161      7173      7175      7163      7161      7173      7176
      7164      7167      7168      7169      7164      7167      7168      7170
      7165      7164      7167      7168      7166      7164      7167      7168
      7167      7168      7170      7171      7167      7168      7170      7172
      7167      7168      7170      7220      7168      7170      7220      7221
      7168      7170      7220      7222      7168      7170      7220      7223
      7169      7168      7170      7171      7169      7168      7170      7172
      7169      7168      7170      7220      7170      7220      7223      7224
      7170      7220      7223      7225      7170      7220      7223      7226
      7171      7170      7220      7221      7171      7170      7220      7222
      7171      7170      7220      7223      7172      7170      7220      7221
      7172      7170      7220      7222      7172      7170      7220      7223
      7173      7176      7179      7180      7173      7176      7179      7181
      7174      7173      7176      7177      7174      7173      7176      7178
      7174      7173      7176      7179      7175      7173      7176      7177
      7175      7173      7176      7178      7175      7173      7176      7179
      7176      7179      7181      7182      7176      7179      7181      7183
      7177      7176      7179      7180      7177      7176      7179      7181
      7178      7176      7179      7180      7178      7176      7179      7181
      7179      7181      7183      7184      7179      7181      7183      7185
      7179      7181      7183      7186      7180      7179      7181      7182
      7180      7179      7181      7183      7181      7183      7186      7187
      7181      7183      7186      7188      7182      7181      7183      7184
      7182      7181      7183      7185      7182      7181      7183      7186
      7183      7186      7188      7189      7183      7186      7188      7190
      7184      7183      7186      7187      7184      7183      7186      7188
      7185      7183      7186      7187      7185      7183      7186      7188
      7186      7188      7190      7191      7186      7188      7190      7192
      7186      7188      7190      7193      7187      7186      7188      7189
      7187      7186      7188      7190      7188      7190      7193      7194
      7188      7190      7193      7195      7189      7188      7190      7191
      7189      7188      7190      7192      7189      7188      7190      7193
      7190      7193      7195      7196      7190      7193      7195      7197
      7191      7190      7193      7194      7191      7190      7193      7195
      7192      7190      7193      7194      7192      7190      7193      7195
      7193      7195      7197      7198      7193      7195      7197      7199
      7193      7195      7197      7200      7194      7193      7195      7196
      7194      7193      7195      7197      7195      7197      7200      7201
      7195      7197      7200      7202      7196      7195      7197      7198
      7196      7195      7197      7199      7196      7195      7197      7200
      7197      7200      7202      7203      7197      7200      7202      7204
      7198      7197      7200      7201      7198      7197      7200      7202
      7199      7197      7200      7201      7199      7197      7200      7202
      7200      7202      7204      7205      7200      7202      7204      7206
      7200      7202      7204      7207      7201      7200      7202      7203
      7201      7200      7202      7204      7202      7204      7207      7208
      7202      7204      7207      7209      7202      7204      7207      7210
      7203      7202      7204      7205      7203      7202      7204      7206
      7203      7202      7204      7207      7204      7207      7210      7211
      7204      7207      7210      7212      7204      7207      7210      7213
      7205      7204      7207      7208      7205      7204      7207      7209
      7205      7204      7207      7210      7206      7204      7207      7208
      7206      7204      7207      7209      7206      7204      7207      7210
      7207      7210      7213      7214      7207      7210      7213      7215
      7207      7210      7213      7216      7208      7207      7210      7211
      7208      7207      7210      7212      7208      7207      7210      7213
      7209      7207      7210      7211      7209      7207      7210      7212
      7209      7207      7210      7213      7210      7213      7216      7217
      7210      7213      7216      7218      7210      7213      7216      7219
      7211      7210      7213      7214      7211      7210      7213      7215
      7211      7210      7213      7216      7212      7210      7213      7214
      7212      7210      7213      7215      7212      7210      7213      7216
      7214      7213      7216      7217      7214      7213      7216      7218
      7214      7213      7216      7219      7215      7213      7216      7217
      7215      7213      7216      7218      7215      7213      7216      7219
      7220      7223      7226      7227      7220      7223      7226      7228
      7220      7223      7226      7229      7221      7220      7223      7224
      7221      7220      7223      7225      7221      7220      7223      7226
      7222      7220      7223      7224      7222      7220      7223      7225
      7222      7220      7223      7226      7223      7226      7229      7230
      7223      7226      7229      7231      7223      7226      7229      7232
      7224      7223      7226      7227      7224      7223      7226      7228
      7224      7223      7226      7229      7225      7223      7226      7227
      7225      7223      7226      7228      7225      7223      7226      7229
      7226      7229      7232      7233      7226      7229      7232      7234
      7226      7229      7232      7235      7227      7226      7229      7230
      7227      7226      7229      7231      7227      7226      7229      7232
      7228      7226      7229      7230      7228      7226      7229      7231
      7228      7226      7229      7232      7229      7232      7235      7236
      7229      7232      7235      7237      7229      7232      7235      7238
      7230      7229      7232      7233      7230      7229      7232      7234
      7230      7229      7232      7235      7231      7229      7232      7233
      7231      7229      7232      7234      7231      7229      7232      7235
      7232      7235      7238      7239      7232      7235      7238      7240
      7232      7235      7238      7241      7233      7232      7235      7236
      7233      7232      7235      7237      7233      7232      7235      7238
      7234      7232      7235      7236      7234      7232      7235      7237
      7234      7232      7235      7238      7235      7238      7241      7242
      7235      7238      7241      7243      7235      7238      7241      7244
      7236      7235      7238      7239      7236      7235      7238      7240
      7236      7235      7238      7241      7237      7235      7238      7239
      7237      7235      7238      7240      7237      7235      7238      7241
      7238      7241      7244      7245      7238      7241      7244      7246
      7238      7241      7244      7247      7239      7238      7241      7242
      7239      7238      7241      7243      7239      7238      7241      7244
      7240      7238      7241      7242      7240      7238      7241      7243
      7240      7238      7241      7244      7241      7244      7247      7248
      7241      7244      7247      7249      7241      7244      7247      7250
      7242      7241      7244      7245      7242      7241      7244      7246
      7242      7241      7244      7247      7243      7241      7244      7245
      7243      7241      7244      7246      7243      7241      7244      7247
      7244      7247      7250      7251      7244      7247      7250      7252
      7244      7247      7250      7253      7245      7244      7247      7248
      7245      7244      7247      7249      7245      7244      7247      7250
      7246      7244      7247      7248      7246      7244      7247      7249
      7246      7244      7247      7250      7247      7250      7253      7254
      7247      7250      7253      7255      7247      7250      7253      7256
      7248      7247      7250      7251      7248      7247      7250      7252
      7248      7247      7250      7253      7249      7247      7250      7251
      7249      7247      7250      7252      7249      7247      7250      7253
      7250      7253      7256      7257      7250      7253      7256      7258
      7250      7253      7256      7259      7251      7250      7253      7254
      7251      7250      7253      7255      7251      7250      7253      7256
      7252      7250      7253      7254      7252      7250      7253      7255
      7252      7250      7253      7256      7253      7256      7259      7260
      7253      7256      7259      7261      7253      7256      7259      7262
      7254      7253      7256      7257      7254      7253      7256      7258
      7254      7253      7256      7259      7255      7253      7256      7257
      7255      7253      7256      7258      7255      7253      7256      7259
      7256      7259      7262      7263      7256      7259      7262      7264
      7256      7259      7262      7265      7257      7256      7259      7260
      7257      7256      7259      7261      7257      7256      7259      7262
      7258      7256      7259      7260      7258      7256      7259      7261
      7258      7256      7259      7262      7259      7262      7265      7266
      7259      7262      7265      7267      7259      7262      7265      7268
      7260      7259      7262      7263      7260      7259      7262      7264
      7260      7259      7262      7265      7261      7259      7262      7263
      7261      7259      7262      7264      7261      7259      7262      7265
      7263      7262      7265      7266      7263      7262      7265      7267
      7263      7262      7265      7268      7264      7262      7265      7266
      7264      7262      7265      7267      7264      7262      7265      7268
      7269      7282      7285      7286      7269      7282      7285      7287
      7269      7282      7285      7292      7270      7269      7274      7275
      7270      7269      7274      7276      7270      7269      7274      7277
      7270      7269      7278      7279      7270      7269      7278      7280
      7270      7269      7278      7281      7270      7269      7282      7283
      7270      7269      7282      7284      7270      7269      7282      7285
      7271      7270      7269      7274      7271      7270      7269      7278
      7271      7270      7269      7282      7272      7270      7269      7274
      7272      7270      7269      7278      7272      7270      7269      7282
      7273      7270      7269      7274      7273      7270      7269      7278
      7273      7270      7269      7282      7274      7269      7278      7279
      7274      7269      7278      7280      7274      7269      7278      7281
      7274      7269      7282      7283      7274      7269      7282      7284
      7274      7269      7282      7285      7275      7274      7269      7278
      7275      7274      7269      7282      7276      7274      7269      7278
      7276      7274      7269      7282      7277      7274      7269      7278
      7277      7274      7269      7282      7278      7269      7282      7283
      7278      7269      7282      7284      7278      7269      7282      7285
      7279      7278      7269      7282      7280      7278      7269      7282
      7281      7278      7269      7282      7282      7285      7292      7288
      7283      7282      7285      7286      7283      7282      7285      7287
      7283      7282      7285      7292      7284      7282      7285      7286
      7284      7282      7285      7287      7284      7282      7285      7292
      7285      7292      7288      7289      7285      7292      7288      7290
      7285      7292      7288      7291      7286      7285      7292      7288
      7287      7285      7292      7288      7288      7291      7293      7294
      7288      7291      7293      7295      7288      7291      7293      7298
      7289      7288      7291      7293      7290      7288      7291      7293
      7291      7293      7298      7296      7291      7293      7298      7299
      7291      7293      7298      7300      7292      7288      7291      7293
      7293      7298      7296      7297      7293      7298      7296      7348
      7293      7298      7300      7301      7293      7298      7300      7302
      7293      7298      7300      7304      7294      7293      7298      7296
      7294      7293      7298      7299      7294      7293      7298      7300
      7295      7293      7298      7296      7295      7293      7298      7299
      7295      7293      7298      7300      7296      7298      7300      7301
      7296      7298      7300      7302      7296      7298      7300      7304
      7296      7348      7350      7351      7296      7348      7350      7352
      7296      7348      7350      7353      7297      7296      7298      7299
      7297      7296      7298      7300      7297      7296      7348      7349
      7297      7296      7348      7350      7298      7296      7348      7349
      7298      7296      7348      7350      7298      7300      7302      7303
      7298      7300      7304      7305      7298      7300      7304      7306
      7299      7298      7296      7348      7299      7298      7300      7301
      7299      7298      7300      7302      7299      7298      7300      7304
      7300      7298      7296      7348      7300      7304      7306      7307
      7300      7304      7306      7308      7301      7300      7302      7303
      7301      7300      7304      7305      7301      7300      7304      7306
      7302      7300      7304      7305      7302      7300      7304      7306
      7303      7302      7300      7304      7304      7306      7308      7309
      7304      7306      7308      7310      7304      7306      7308      7311
      7305      7304      7306      7307      7305      7304      7306      7308
      7306      7308      7311      7312      7306      7308      7311      7313
      7306      7308      7311      7314      7307      7306      7308      7309
      7307      7306      7308      7310      7307      7306      7308      7311
      7308      7311      7314      7315      7308      7311      7314      7316
      7308      7311      7314      7317      7309      7308      7311      7312
      7309      7308      7311      7313      7309      7308      7311      7314
      7310      7308      7311      7312      7310      7308      7311      7313
      7310      7308      7311      7314      7311      7314      7317      7318
      7311      7314      7317      7319      7311      7314      7317      7320
      7312      7311      7314      7315      7312      7311      7314      7316
      7312      7311      7314      7317      7313      7311      7314      7315
      7313      7311      7314      7316      7313      7311      7314      7317
      7314      7317      7320      7321      7314      7317      7320      7322
      7314      7317      7320      7323      7315      7314      7317      7318
      7315      7314      7317      7319      7315      7314      7317      7320
      7316      7314      7317      7318      7316      7314      7317      7319
      7316      7314      7317      7320      7317      7320      7323      7324
      7317      7320      7323      7325      7317      7320      7323      7326
      7318      7317      7320      7321      7318      7317      7320      7322
      7318      7317      7320      7323      7319      7317      7320      7321
      7319      7317      7320      7322      7319      7317      7320      7323
      7320      7323      7326      7327      7320      7323      7326      7328
      7320      7323      7326      7329      7321      7320      7323      7324
      7321      7320      7323      7325      7321      7320      7323      7326
      7322      7320      7323      7324      7322      7320      7323      7325
      7322      7320      7323      7326      7323      7326      7329      7330
      7323      7326      7329      7331      7323      7326      7329      7332
      7324      7323      7326      7327      7324      7323      7326      7328
      7324      7323      7326      7329      7325      7323      7326      7327
      7325      7323      7326      7328      7325      7323      7326      7329
      7326      7329      7332      7333      7326      7329      7332      7334
      7326      7329      7332      7335      7327      7326      7329      7330
      7327      7326      7329      7331      7327      7326      7329      7332
      7328      7326      7329      7330      7328      7326      7329      7331
      7328      7326      7329      7332      7329      7332      7335      7336
      7329      7332      7335      7337      7329      7332      7335      7338
      7330      7329      7332      7333      7330      7329      7332      7334
      7330      7329      7332      7335      7331      7329      7332      7333
      7331      7329      7332      7334      7331      7329      7332      7335
      7332      7335      7338      7339      7332      7335      7338      7340
      7332      7335      7338      7341      7333      7332      7335      7336
      7333      7332      7335      7337      7333      7332      7335      7338
      7334      7332      7335      7336      7334      7332      7335      7337
      7334      7332      7335      7338      7335      7338      7341      7342
      7335      7338      7341      7343      7335      7338      7341      7344
      7336      7335      7338      7339      7336      7335      7338      7340
      7336      7335      7338      7341      7337      7335      7338      7339
      7337      7335      7338      7340      7337      7335      7338      7341
      7338      7341      7344      7345      7338      7341      7344      7346
      7338      7341      7344      7347      7339      7338      7341      7342
      7339      7338      7341      7343      7339      7338      7341      7344
      7340      7338      7341      7342      7340      7338      7341      7343
      7340      7338      7341      7344      7342      7341      7344      7345
      7342      7341      7344      7346      7342      7341      7344      7347
      7343      7341      7344      7345      7343      7341      7344      7346
      7343      7341      7344      7347      7348      7350      7353      7354
      7348      7350      7353      7355      7348      7350      7353      7356
      7349      7348      7350      7351      7349      7348      7350      7352
      7349      7348      7350      7353      7350      7353      7356      7357
      7350      7353      7356      7358      7350      7353      7356      7359
      7351      7350      7353      7354      7351      7350      7353      7355
      7351      7350      7353      7356      7352      7350      7353      7354
      7352      7350      7353      7355      7352      7350      7353      7356
      7353      7356      7359      7360      7353      7356      7359      7361
      7353      7356      7359      7362      7354      7353      7356      7357
      7354      7353      7356      7358      7354      7353      7356      7359
      7355      7353      7356      7357      7355      7353      7356      7358
      7355      7353      7356      7359      7356      7359      7362      7363
      7356      7359      7362      7364      7356      7359      7362      7365
      7357      7356      7359      7360      7357      7356      7359      7361
      7357      7356      7359      7362      7358      7356      7359      7360
      7358      7356      7359      7361      7358      7356      7359      7362
      7359      7362      7365      7366      7359      7362      7365      7367
      7359      7362      7365      7368      7360      7359      7362      7363
      7360      7359      7362      7364      7360      7359      7362      7365
      7361      7359      7362      7363      7361      7359      7362      7364
      7361      7359      7362      7365      7362      7365      7368      7369
      7362      7365      7368      7370      7362      7365      7368      7371
      7363      7362      7365      7366      7363      7362      7365      7367
      7363      7362      7365      7368      7364      7362      7365      7366
      7364      7362      7365      7367      7364      7362      7365      7368
      7365      7368      7371      7372      7365      7368      7371      7373
      7366      7365      7368      7369      7366      7365      7368      7370
      7366      7365      7368      7371      7367      7365      7368      7369
      7367      7365      7368      7370      7367      7365      7368      7371
      7368      7371      7373      7374      7368      7371      7373      7375
      7369      7368      7371      7372      7369      7368      7371      7373
      7370      7368      7371      7372      7370      7368      7371      7373
      7371      7373      7375      7376      7371      7373      7375      7377
      7371      7373      7375      7378      7372      7371      7373      7374
      7372      7371      7373      7375      7373      7375      7378      7379
      7373      7375      7378      7380      7373      7375      7378      7381
      7374      7373      7375      7376      7374      7373      7375      7377
      7374      7373      7375      7378      7375      7378      7381      7382
      7375      7378      7381      7383      7375      7378      7381      7384
      7376      7375      7378      7379      7376      7375      7378      7380
      7376      7375      7378      7381      7377      7375      7378      7379
      7377      7375      7378      7380      7377      7375      7378      7381
      7378      7381      7384      7385      7378      7381      7384      7386
      7378      7381      7384      7387      7379      7378      7381      7382
      7379      7378      7381      7383      7379      7378      7381      7384
      7380      7378      7381      7382      7380      7378      7381      7383
      7380      7378      7381      7384      7381      7384      7387      7388
      7381      7384      7387      7389      7381      7384      7387      7390
      7382      7381      7384      7385      7382      7381      7384      7386
      7382      7381      7384      7387      7383      7381      7384      7385
      7383      7381      7384      7386      7383      7381      7384      7387
      7384      7387      7390      7391      7384      7387      7390      7392
      7384      7387      7390      7393      7385      7384      7387      7388
      7385      7384      7387      7389      7385      7384      7387      7390
      7386      7384      7387      7388      7386      7384      7387      7389
      7386      7384      7387      7390      7387      7390      7393      7394
      7387      7390      7393      7395      7387      7390      7393      7396
      7388      7387      7390      7391      7388      7387      7390      7392
      7388      7387      7390      7393      7389      7387      7390      7391
      7389      7387      7390      7392      7389      7387      7390      7393
      7390      7393      7396      7397      7390      7393      7396      7398
      7390      7393      7396      7399      7391      7390      7393      7394
      7391      7390      7393      7395      7391      7390      7393      7396
      7392      7390      7393      7394      7392      7390      7393      7395
      7392      7390      7393      7396      7394      7393      7396      7397
      7394      7393      7396      7398      7394      7393      7396      7399
      7395      7393      7396      7397      7395      7393      7396      7398
      7395      7393      7396      7399      7400      7404      7407      7408
      7400      7404      7407      7438      7400      7446      7443      7438
      7400      7446      7443      7444      7400      7446      7443      7445
      7401      7400      7402      7403      7401      7400      7404      7405
      7401      7400      7404      7406      7401      7400      7404      7407
      7401      7400      7446      7443      7401      7400      7446      7447
      7401      7400      7446      7448      7402      7400      7404      7405
      7402      7400      7404      7406      7402      7400      7404      7407
      7402      7400      7446      7443      7402      7400      7446      7447
      7402      7400      7446      7448      7403      7402      7400      7404
      7403      7402      7400      7446      7404      7400      7446      7443
      7404      7400      7446      7447      7404      7400      7446      7448
      7404      7407      7408      7409      7404      7407      7408      7410
      7404      7407      7438      7436      7404      7407      7438      7439
      7404      7407      7438      7443      7405      7404      7400      7446
      7405      7404      7407      7408      7405      7404      7407      7438
      7406      7404      7400      7446      7406      7404      7407      7408
      7406      7404      7407      7438      7407      7404      7400      7446
      7407      7408      7410      7411      7407      7408      7410      7412
      7407      7408      7410      7413      7407      7438      7436      7413
      7407      7438      7436      7433      7407      7438      7436      7437
      7407      7438      7439      7440      7407      7438      7439      7441
      7407      7438      7439      7442      7407      7438      7443      7444
      7407      7438      7443      7445      7407      7438      7443      7446
      7408      7407      7438      7436      7408      7407      7438      7439
      7408      7407      7438      7443      7408      7410      7413      7414
      7408      7410      7413      7415      7408      7410      7413      7436
      7409      7408      7407      7438      7409      7408      7410      7411
      7409      7408      7410      7412      7409      7408      7410      7413
      7410      7408      7407      7438      7410      7413      7415      7416
      7410      7413      7415      7417      7410      7413      7415      7425
      7410      7413      7436      7433      7410      7413      7436      7437
      7410      7413      7436      7438      7411      7410      7413      7414
      7411      7410      7413      7415      7411      7410      7413      7436
      7412      7410      7413      7414      7412      7410      7413      7415
      7412      7410      7413      7436      7413      7415      7417      7418
      7413      7415      7417      7419      7413      7415      7417      7420
      7413      7415      7425      7423      7413      7415      7425      7426
      7413      7415      7425      7430      7413      7436      7433      7430
      7413      7436      7433      7434      7413      7436      7433      7435
      7413      7436      7438      7439      7413      7436      7438      7443
      7414      7413      7415      7416      7414      7413      7415      7417
      7414      7413      7415      7425      7414      7413      7436      7433
      7414      7413      7436      7437      7414      7413      7436      7438
      7415      7413      7436      7433      7415      7413      7436      7437
      7415      7413      7436      7438      7415      7417      7420      7421
      7415      7417      7420      7422      7415      7417      7420      7423
      7415      7425      7423      7420      7415      7425      7423      7424
      7415      7425      7423      7449      7415      7425      7426      7427
      7415      7425      7426      7428      7415      7425      7426      7429
      7415      7425      7430      7431      7415      7425      7430      7432
      7415      7425      7430      7433      7416      7415      7413      7436
      7416      7415      7417      7418      7416      7415      7417      7419
      7416      7415      7417      7420      7416      7415      7425      7423
      7416      7415      7425      7426      7416      7415      7425      7430
      7417      7415      7413      7436      7417      7415      7425      7423
      7417      7415      7425      7426      7417      7415      7425      7430
      7417      7420      7423      7424      7417      7420      7423      7425
      7417      7420      7423      7449      7418      7417      7415      7425
      7418      7417      7420      7421      7418      7417      7420      7422
      7418      7417      7420      7423      7419      7417      7415      7425
      7419      7417      7420      7421      7419      7417      7420      7422
      7419      7417      7420      7423      7420      7417      7415      7425
      7420      7423      7425      7426      7420      7423      7425      7430
      7420      7423      7449      7450      7420      7423      7449      7451
      7420      7423      7449      7455      7421      7420      7423      7424
      7421      7420      7423      7425      7421      7420      7423      7449
      7422      7420      7423      7424      7422      7420      7423      7425
      7422      7420      7423      7449      7423      7425      7426      7427
      7423      7425      7426      7428      7423      7425      7426      7429
      7423      7425      7430      7431      7423      7425      7430      7432
      7423      7425      7430      7433      7423      7449      7451      7452
      7423      7449      7451      7453      7423      7449      7451      7454
      7423      7449      7455      7456      7423      7449      7455      7457
      7423      7449      7455      7458      7424      7423      7425      7426
      7424      7423      7425      7430      7424      7423      7449      7450
      7424      7423      7449      7451      7424      7423      7449      7455
      7425      7415      7413      7436      7425      7423      7449      7450
      7425      7423      7449      7451      7425      7423      7449      7455
      7425      7430      7433      7434      7425      7430      7433      7435
      7425      7430      7433      7436      7426      7425      7423      7449
      7426      7425      7430      7431      7426      7425      7430      7432
      7426      7425      7430      7433      7427      7426      7425      7430
      7428      7426      7425      7430      7429      7426      7425      7430
      7430      7425      7423      7449      7430      7433      7436      7437
      7430      7433      7436      7438      7431      7430      7433      7434
      7431      7430      7433      7435      7431      7430      7433      7436
      7432      7430      7433      7434      7432      7430      7433      7435
      7432      7430      7433      7436      7433      7436      7438      7439
      7433      7436      7438      7443      7434      7433      7436      7437
      7434      7433      7436      7438      7435      7433      7436      7437
      7435      7433      7436      7438      7436      7438      7439      7440
      7436      7438      7439      7441      7436      7438      7439      7442
      7436      7438      7443      7444      7436      7438      7443      7445
      7436      7438      7443      7446      7437      7436      7438      7439
      7437      7436      7438      7443      7438      7443      7446      7447
      7438      7443      7446      7448      7439      7438      7443      7444
      7439      7438      7443      7445      7439      7438      7443      7446
      7440      7439      7438      7443      7441      7439      7438      7443
      7442      7439      7438      7443      7444      7443      7446      7447
      7444      7443      7446      7448      7445      7443      7446      7447
      7445      7443      7446      7448      7449      7455      7458      7459
      7449      7455      7458      7460      7449      7455      7458      7461
      7450      7449      7451      7452      7450      7449      7451      7453
      7450      7449      7451      7454      7450      7449      7455      7456
      7450      7449      7455      7457      7450      7449      7455      7458
      7451      7449      7455      7456      7451      7449      7455      7457
      7451      7449      7455      7458      7452      7451      7449      7455
      7453      7451      7449      7455      7454      7451      7449      7455
      7455      7458      7461      7462      7455      7458      7461      7463
      7455      7458      7461      7464      7456      7455      7458      7459
      7456      7455      7458      7460      7456      7455      7458      7461
      7457      7455      7458      7459      7457      7455      7458      7460
      7457      7455      7458      7461      7458      7461      7464      7465
      7458      7461      7464      7466      7458      7461      7464      7470
      7459      7458      7461      7462      7459      7458      7461      7463
      7459      7458      7461      7464      7460      7458      7461      7462
      7460      7458      7461      7463      7460      7458      7461      7464
      7461      7464      7466      7467      7461      7464      7466      7468
      7461      7464      7466      7469      7461      7464      7470      7471
      7461      7464      7470      7472      7461      7464      7470      7473
      7462      7461      7464      7465      7462      7461      7464      7466
      7462      7461      7464      7470      7463      7461      7464      7465
      7463      7461      7464      7466      7463      7461      7464      7470
      7465      7464      7466      7467      7465      7464      7466      7468
      7465      7464      7466      7469      7465      7464      7470      7471
      7465      7464      7470      7472      7465      7464      7470      7473
      7466      7464      7470      7471      7466      7464      7470      7472
      7466      7464      7470      7473      7467      7466      7464      7470
      7468      7466      7464      7470      7469      7466      7464      7470
      7474      7478      7481      7482      7474      7478      7481      7512
      7474      7520      7517      7512      7474      7520      7517      7518
      7474      7520      7517      7519      7475      7474      7476      7477
      7475      7474      7478      7479      7475      7474      7478      7480
      7475      7474      7478      7481      7475      7474      7520      7517
      7475      7474      7520      7521      7475      7474      7520      7522
      7476      7474      7478      7479      7476      7474      7478      7480
      7476      7474      7478      7481      7476      7474      7520      7517
      7476      7474      7520      7521      7476      7474      7520      7522
      7477      7476      7474      7478      7477      7476      7474      7520
      7478      7474      7520      7517      7478      7474      7520      7521
      7478      7474      7520      7522      7478      7481      7482      7483
      7478      7481      7482      7484      7478      7481      7512      7510
      7478      7481      7512      7513      7478      7481      7512      7517
      7479      7478      7474      7520      7479      7478      7481      7482
      7479      7478      7481      7512      7480      7478      7474      7520
      7480      7478      7481      7482      7480      7478      7481      7512
      7481      7478      7474      7520      7481      7482      7484      7485
      7481      7482      7484      7486      7481      7482      7484      7487
      7481      7512      7510      7487      7481      7512      7510      7507
      7481      7512      7510      7511      7481      7512      7513      7514
      7481      7512      7513      7515      7481      7512      7513      7516
      7481      7512      7517      7518      7481      7512      7517      7519
      7481      7512      7517      7520      7482      7481      7512      7510
      7482      7481      7512      7513      7482      7481      7512      7517
      7482      7484      7487      7488      7482      7484      7487      7489
      7482      7484      7487      7510      7483      7482      7481      7512
      7483      7482      7484      7485      7483      7482      7484      7486
      7483      7482      7484      7487      7484      7482      7481      7512
      7484      7487      7489      7490      7484      7487      7489      7491
      7484      7487      7489      7499      7484      7487      7510      7507
      7484      7487      7510      7511      7484      7487      7510      7512
      7485      7484      7487      7488      7485      7484      7487      7489
      7485      7484      7487      7510      7486      7484      7487      7488
      7486      7484      7487      7489      7486      7484      7487      7510
      7487      7489      7491      7492      7487      7489      7491      7493
      7487      7489      7491      7494      7487      7489      7499      7497
      7487      7489      7499      7500      7487      7489      7499      7504
      7487      7510      7507      7504      7487      7510      7507      7508
      7487      7510      7507      7509      7487      7510      7512      7513
      7487      7510      7512      7517      7488      7487      7489      7490
      7488      7487      7489      7491      7488      7487      7489      7499
      7488      7487      7510      7507      7488      7487      7510      7511
      7488      7487      7510      7512      7489      7487      7510      7507
      7489      7487      7510      7511      7489      7487      7510      7512
      7489      7491      7494      7495      7489      7491      7494      7496
      7489      7491      7494      7497      7489      7499      7497      7494
      7489      7499      7497      7498      7489      7499      7497      7523
      7489      7499      7500      7501      7489      7499      7500      7502
      7489      7499      7500      7503      7489      7499      7504      7505
      7489      7499      7504      7506      7489      7499      7504      7507
      7490      7489      7487      7510      7490      7489      7491      7492
      7490      7489      7491      7493      7490      7489      7491      7494
      7490      7489      7499      7497      7490      7489      7499      7500
      7490      7489      7499      7504      7491      7489      7487      7510
      7491      7489      7499      7497      7491      7489      7499      7500
      7491      7489      7499      7504      7491      7494      7497      7498
      7491      7494      7497      7499      7491      7494      7497      7523
      7492      7491      7489      7499      7492      7491      7494      7495
      7492      7491      7494      7496      7492      7491      7494      7497
      7493      7491      7489      7499      7493      7491      7494      7495
      7493      7491      7494      7496      7493      7491      7494      7497
      7494      7491      7489      7499      7494      7497      7499      7500
      7494      7497      7499      7504      7494      7497      7523      7524
      7494      7497      7523      7525      7494      7497      7523      7529
      7495      7494      7497      7498      7495      7494      7497      7499
      7495      7494      7497      7523      7496      7494      7497      7498
      7496      7494      7497      7499      7496      7494      7497      7523
      7497      7499      7500      7501      7497      7499      7500      7502
      7497      7499      7500      7503      7497      7499      7504      7505
      7497      7499      7504      7506      7497      7499      7504      7507
      7497      7523      7525      7526      7497      7523      7525      7527
      7497      7523      7525      7528      7497      7523      7529      7530
      7497      7523      7529      7531      7497      7523      7529      7532
      7498      7497      7499      7500      7498      7497      7499      7504
      7498      7497      7523      7524      7498      7497      7523      7525
      7498      7497      7523      7529      7499      7489      7487      7510
      7499      7497      7523      7524      7499      7497      7523      7525
      7499      7497      7523      7529      7499      7504      7507      7508
      7499      7504      7507      7509      7499      7504      7507      7510
      7500      7499      7497      7523      7500      7499      7504      7505
      7500      7499      7504      7506      7500      7499      7504      7507
      7501      7500      7499      7504      7502      7500      7499      7504
      7503      7500      7499      7504      7504      7499      7497      7523
      7504      7507      7510      7511      7504      7507      7510      7512
      7505      7504      7507      7508      7505      7504      7507      7509
      7505      7504      7507      7510      7506      7504      7507      7508
      7506      7504      7507      7509      7506      7504      7507      7510
      7507      7510      7512      7513      7507      7510      7512      7517
      7508      7507      7510      7511      7508      7507      7510      7512
      7509      7507      7510      7511      7509      7507      7510      7512
      7510      7512      7513      7514      7510      7512      7513      7515
      7510      7512      7513      7516      7510      7512      7517      7518
      7510      7512      7517      7519      7510      7512      7517      7520
      7511      7510      7512      7513      7511      7510      7512      7517
      7512      7517      7520      7521      7512      7517      7520      7522
      7513      7512      7517      7518      7513      7512      7517      7519
      7513      7512      7517      7520      7514      7513      7512      7517
      7515      7513      7512      7517      7516      7513      7512      7517
      7518      7517      7520      7521      7518      7517      7520      7522
      7519      7517      7520      7521      7519      7517      7520      7522
      7523      7529      7532      7533      7523      7529      7532      7534
      7523      7529      7532      7535      7524      7523      7525      7526
      7524      7523      7525      7527      7524      7523      7525      7528
      7524      7523      7529      7530      7524      7523      7529      7531
      7524      7523      7529      7532      7525      7523      7529      7530
      7525      7523      7529      7531      7525      7523      7529      7532
      7526      7525      7523      7529      7527      7525      7523      7529
      7528      7525      7523      7529      7529      7532      7535      7536
      7529      7532      7535      7537      7529      7532      7535      7538
      7530      7529      7532      7533      7530      7529      7532      7534
      7530      7529      7532      7535      7531      7529      7532      7533
      7531      7529      7532      7534      7531      7529      7532      7535
      7532      7535      7538      7539      7532      7535      7538      7540
      7532      7535      7538      7544      7533      7532      7535      7536
      7533      7532      7535      7537      7533      7532      7535      7538
      7534      7532      7535      7536      7534      7532      7535      7537
      7534      7532      7535      7538      7535      7538      7540      7541
      7535      7538      7540      7542      7535      7538      7540      7543
      7535      7538      7544      7545      7535      7538      7544      7546
      7535      7538      7544      7547      7536      7535      7538      7539
      7536      7535      7538      7540      7536      7535      7538      7544
      7537      7535      7538      7539      7537      7535      7538      7540
      7537      7535      7538      7544      7539      7538      7540      7541
      7539      7538      7540      7542      7539      7538      7540      7543
      7539      7538      7544      7545      7539      7538      7544      7546
      7539      7538      7544      7547      7540      7538      7544      7545
      7540      7538      7544      7546      7540      7538      7544      7547
      7541      7540      7538      7544      7542      7540      7538      7544
      7543      7540      7538      7544      7548      7552      7555      7556
      7548      7552      7555      7586      7548      7594      7591      7586
      7548      7594      7591      7592      7548      7594      7591      7593
      7549      7548      7550      7551      7549      7548      7552      7553
      7549      7548      7552      7554      7549      7548      7552      7555
      7549      7548      7594      7591      7549      7548      7594      7595
      7549      7548      7594      7596      7550      7548      7552      7553
      7550      7548      7552      7554      7550      7548      7552      7555
      7550      7548      7594      7591      7550      7548      7594      7595
      7550      7548      7594      7596      7551      7550      7548      7552
      7551      7550      7548      7594      7552      7548      7594      7591
      7552      7548      7594      7595      7552      7548      7594      7596
      7552      7555      7556      7557      7552      7555      7556      7558
      7552      7555      7586      7584      7552      7555      7586      7587
      7552      7555      7586      7591      7553      7552      7548      7594
      7553      7552      7555      7556      7553      7552      7555      7586
      7554      7552      7548      7594      7554      7552      7555      7556
      7554      7552      7555      7586      7555      7552      7548      7594
      7555      7556      7558      7559      7555      7556      7558      7560
      7555      7556      7558      7561      7555      7586      7584      7561
      7555      7586      7584      7581      7555      7586      7584      7585
      7555      7586      7587      7588      7555      7586      7587      7589
      7555      7586      7587      7590      7555      7586      7591      7592
      7555      7586      7591      7593      7555      7586      7591      7594
      7556      7555      7586      7584      7556      7555      7586      7587
      7556      7555      7586      7591      7556      7558      7561      7562
      7556      7558      7561      7563      7556      7558      7561      7584
      7557      7556      7555      7586      7557      7556      7558      7559
      7557      7556      7558      7560      7557      7556      7558      7561
      7558      7556      7555      7586      7558      7561      7563      7564
      7558      7561      7563      7565      7558      7561      7563      7573
      7558      7561      7584      7581      7558      7561      7584      7585
      7558      7561      7584      7586      7559      7558      7561      7562
      7559      7558      7561      7563      7559      7558      7561      7584
      7560      7558      7561      7562      7560      7558      7561      7563
      7560      7558      7561      7584      7561      7563      7565      7566
      7561      7563      7565      7567      7561      7563      7565      7568
      7561      7563      7573      7571      7561      7563      7573      7574
      7561      7563      7573      7578      7561      7584      7581      7578
      7561      7584      7581      7582      7561      7584      7581      7583
      7561      7584      7586      7587      7561      7584      7586      7591
      7562      7561      7563      7564      7562      7561      7563      7565
      7562      7561      7563      7573      7562      7561      7584      7581
      7562      7561      7584      7585      7562      7561      7584      7586
      7563      7561      7584      7581      7563      7561      7584      7585
      7563      7561      7584      7586      7563      7565      7568      7569
      7563      7565      7568      7570      7563      7565      7568      7571
      7563      7573      7571      7568      7563      7573      7571      7572
      7563      7573      7571      7597      7563      7573      7574      7575
      7563      7573      7574      7576      7563      7573      7574      7577
      7563      7573      7578      7579      7563      7573      7578      7580
      7563      7573      7578      7581      7564      7563      7561      7584
      7564      7563      7565      7566      7564      7563      7565      7567
      7564      7563      7565      7568      7564      7563      7573      7571
      7564      7563      7573      7574      7564      7563      7573      7578
      7565      7563      7561      7584      7565      7563      7573      7571
      7565      7563      7573      7574      7565      7563      7573      7578
      7565      7568      7571      7572      7565      7568      7571      7573
      7565      7568      7571      7597      7566      7565      7563      7573
      7566      7565      7568      7569      7566      7565      7568      7570
      7566      7565      7568      7571      7567      7565      7563      7573
      7567      7565      7568      7569      7567      7565      7568      7570
      7567      7565      7568      7571      7568      7565      7563      7573
      7568      7571      7573      7574      7568      7571      7573      7578
      7568      7571      7597      7598      7568      7571      7597      7599
      7568      7571      7597      7603      7569      7568      7571      7572
      7569      7568      7571      7573      7569      7568      7571      7597
      7570      7568      7571      7572      7570      7568      7571      7573
      7570      7568      7571      7597      7571      7573      7574      7575
      7571      7573      7574      7576      7571      7573      7574      7577
      7571      7573      7578      7579      7571      7573      7578      7580
      7571      7573      7578      7581      7571      7597      7599      7600
      7571      7597      7599      7601      7571      7597      7599      7602
      7571      7597      7603      7604      7571      7597      7603      7605
      7571      7597      7603      7606      7572      7571      7573      7574
      7572      7571      7573      7578      7572      7571      7597      7598
      7572      7571      7597      7599      7572      7571      7597      7603
      7573      7563      7561      7584      7573      7571      7597      7598
      7573      7571      7597      7599      7573      7571      7597      7603
      7573      7578      7581      7582      7573      7578      7581      7583
      7573      7578      7581      7584      7574      7573      7571      7597
      7574      7573      7578      7579      7574      7573      7578      7580
      7574      7573      7578      7581      7575      7574      7573      7578
      7576      7574      7573      7578      7577      7574      7573      7578
      7578      7573      7571      7597      7578      7581      7584      7585
      7578      7581      7584      7586      7579      7578      7581      7582
      7579      7578      7581      7583      7579      7578      7581      7584
      7580      7578      7581      7582      7580      7578      7581      7583
      7580      7578      7581      7584      7581      7584      7586      7587
      7581      7584      7586      7591      7582      7581      7584      7585
      7582      7581      7584      7586      7583      7581      7584      7585
      7583      7581      7584      7586      7584      7586      7587      7588
      7584      7586      7587      7589      7584      7586      7587      7590
      7584      7586      7591      7592      7584      7586      7591      7593
      7584      7586      7591      7594      7585      7584      7586      7587
      7585      7584      7586      7591      7586      7591      7594      7595
      7586      7591      7594      7596      7587      7586      7591      7592
      7587      7586      7591      7593      7587      7586      7591      7594
      7588      7587      7586      7591      7589      7587      7586      7591
      7590      7587      7586      7591      7592      7591      7594      7595
      7592      7591      7594      7596      7593      7591      7594      7595
      7593      7591      7594      7596      7597      7603      7606      7607
      7597      7603      7606      7608      7597      7603      7606      7609
      7598      7597      7599      7600      7598      7597      7599      7601
      7598      7597      7599      7602      7598      7597      7603      7604
      7598      7597      7603      7605      7598      7597      7603      7606
      7599      7597      7603      7604      7599      7597      7603      7605
      7599      7597      7603      7606      7600      7599      7597      7603
      7601      7599      7597      7603      7602      7599      7597      7603
      7603      7606      7609      7610      7603      7606      7609      7611
      7603      7606      7609      7612      7604      7603      7606      7607
      7604      7603      7606      7608      7604      7603      7606      7609
      7605      7603      7606      7607      7605      7603      7606      7608
      7605      7603      7606      7609      7606      7609      7612      7613
      7606      7609      7612      7614      7606      7609      7612      7618
      7607      7606      7609      7610      7607      7606      7609      7611
      7607      7606      7609      7612      7608      7606      7609      7610
      7608      7606      7609      7611      7608      7606      7609      7612
      7609      7612      7614      7615      7609      7612      7614      7616
      7609      7612      7614      7617      7609      7612      7618      7619
      7609      7612      7618      7620      7609      7612      7618      7621
      7610      7609      7612      7613      7610      7609      7612      7614
      7610      7609      7612      7618      7611      7609      7612      7613
      7611      7609      7612      7614      7611      7609      7612      7618
      7613      7612      7614      7615      7613      7612      7614      7616
      7613      7612      7614      7617      7613      7612      7618      7619
      7613      7612      7618      7620      7613      7612      7618      7621
      7614      7612      7618      7619      7614      7612      7618      7620
      7614      7612      7618      7621      7615      7614      7612      7618
      7616      7614      7612      7618      7617      7614      7612      7618
      7622      7626      7629      7630      7622      7626      7629      7631
      7622      7626      7629      7635      7623      7622      7626      7627
      7623      7622      7626      7628      7623      7622      7626      7629
      7624      7622      7626      7627      7624      7622      7626      7628
      7624      7622      7626      7629      7625      7622      7626      7627
      7625      7622      7626      7628      7625      7622      7626      7629
      7626      7629      7635      7632      7627      7626      7629      7630
      7627      7626      7629      7631      7627      7626      7629      7635
      7628      7626      7629      7630      7628      7626      7629      7631
      7628      7626      7629      7635      7629      7635      7632      7633
      7629      7635      7632      7634      7629      7635      7632      7636
      7630      7629      7635      7632      7631      7629      7635      7632
      7632      7636      7637      7638      7632      7636      7637      7639
      7632      7636      7637      7640      7633      7632      7636      7637
      7634      7632      7636      7637      7635      7632      7636      7637
      7636      7637      7640      7641      7636      7637      7640      7642
      7636      7637      7640      7648      7637      7640      7642      7643
      7637      7640      7648      7649      7637      7640      7648      7650
      7637      7640      7648      7651      7638      7637      7640      7641
      7638      7637      7640      7642      7638      7637      7640      7648
      7639      7637      7640      7641      7639      7637      7640      7642
      7639      7637      7640      7648      7640      7642      7643      7644
      7640      7642      7643      7645      7640      7648      7651      7652
      7641      7640      7642      7643      7641      7640      7648      7649
      7641      7640      7648      7650      7641      7640      7648      7651
      7642      7640      7648      7649      7642      7640      7648      7650
      7642      7640      7648      7651      7642      7643      7645      7646
      7642      7643      7645      7647      7642      7643      7645      7657
      7643      7642      7640      7648      7643      7645      7657      7658
      7643      7645      7657      7659      7643      7645      7657      7660
      7644      7643      7645      7646      7644      7643      7645      7647
      7644      7643      7645      7657      7645      7657      7660      7661
      7645      7657      7660      7662      7645      7657      7660      7663
      7646      7645      7657      7658      7646      7645      7657      7659
      7646      7645      7657      7660      7647      7645      7657      7658
      7647      7645      7657      7659      7647      7645      7657      7660
      7648      7651      7652      7653      7648      7651      7652      7654
      7649      7648      7651      7652      7650      7648      7651      7652
      7651      7652      7654      7655      7651      7652      7654      7656
      7651      7652      7654      7704      7652      7654      7704      7705
      7652      7654      7704      7706      7652      7654      7704      7707
      7653      7652      7654      7655      7653      7652      7654      7656
      7653      7652      7654      7704      7654      7704      7707      7708
      7654      7704      7707      7709      7654      7704      7707      7710
      7655      7654      7704      7705      7655      7654      7704      7706
      7655      7654      7704      7707      7656      7654      7704      7705
      7656      7654      7704      7706      7656      7654      7704      7707
      7657      7660      7663      7664      7657      7660      7663      7665
      7658      7657      7660      7661      7658      7657      7660      7662
      7658      7657      7660      7663      7659      7657      7660      7661
      7659      7657      7660      7662      7659      7657      7660      7663
      7660      7663      7665      7666      7660      7663      7665      7667
      7661      7660      7663      7664      7661      7660      7663      7665
      7662      7660      7663      7664      7662      7660      7663      7665
      7663      7665      7667      7668      7663      7665      7667      7669
      7663      7665      7667      7670      7664      7663      7665      7666
      7664      7663      7665      7667      7665      7667      7670      7671
      7665      7667      7670      7672      7666      7665      7667      7668
      7666      7665      7667      7669      7666      7665      7667      7670
      7667      7670      7672      7673      7667      7670      7672      7674
      7668      7667      7670      7671      7668      7667      7670      7672
      7669      7667      7670      7671      7669      7667      7670      7672
      7670      7672      7674      7675      7670      7672      7674      7676
      7670      7672      7674      7677      7671      7670      7672      7673
      7671      7670      7672      7674      7672      7674      7677      7678
      7672      7674      7677      7679      7673      7672      7674      7675
      7673      7672      7674      7676      7673      7672      7674      7677
      7674      7677      7679      7680      7674      7677      7679      7681
      7675      7674      7677      7678      7675      7674      7677      7679
      7676      7674      7677      7678      7676      7674      7677      7679
      7677      7679      7681      7682      7677      7679      7681      7683
      7677      7679      7681      7684      7678      7677      7679      7680
      7678      7677      7679      7681      7679      7681      7684      7685
      7679      7681      7684      7686      7680      7679      7681      7682
      7680      7679      7681      7683      7680      7679      7681      7684
      7681      7684      7686      7687      7681      7684      7686      7688
      7682      7681      7684      7685      7682      7681      7684      7686
      7683      7681      7684      7685      7683      7681      7684      7686
      7684      7686      7688      7689      7684      7686      7688      7690
      7684      7686      7688      7691      7685      7684      7686      7687
      7685      7684      7686      7688      7686      7688      7691      7692
      7686      7688      7691      7693      7686      7688      7691      7694
      7687      7686      7688      7689      7687      7686      7688      7690
      7687      7686      7688      7691      7688      7691      7694      7695
      7688      7691      7694      7696      7688      7691      7694      7697
      7689      7688      7691      7692      7689      7688      7691      7693
      7689      7688      7691      7694      7690      7688      7691      7692
      7690      7688      7691      7693      7690      7688      7691      7694
      7691      7694      7697      7698      7691      7694      7697      7699
      7691      7694      7697      7700      7692      7691      7694      7695
      7692      7691      7694      7696      7692      7691      7694      7697
      7693      7691      7694      7695      7693      7691      7694      7696
      7693      7691      7694      7697      7694      7697      7700      7701
      7694      7697      7700      7702      7694      7697      7700      7703
      7695      7694      7697      7698      7695      7694      7697      7699
      7695      7694      7697      7700      7696      7694      7697      7698
      7696      7694      7697      7699      7696      7694      7697      7700
      7698      7697      7700      7701      7698      7697      7700      7702
      7698      7697      7700      7703      7699      7697      7700      7701
      7699      7697      7700      7702      7699      7697      7700      7703
      7704      7707      7710      7711      7704      7707      7710      7712
      7704      7707      7710      7713      7705      7704      7707      7708
      7705      7704      7707      7709      7705      7704      7707      7710
      7706      7704      7707      7708      7706      7704      7707      7709
      7706      7704      7707      7710      7707      7710      7713      7714
      7707      7710      7713      7715      7707      7710      7713      7716
      7708      7707      7710      7711      7708      7707      7710      7712
      7708      7707      7710      7713      7709      7707      7710      7711
      7709      7707      7710      7712      7709      7707      7710      7713
      7710      7713      7716      7717      7710      7713      7716      7718
      7710      7713      7716      7719      7711      7710      7713      7714
      7711      7710      7713      7715      7711      7710      7713      7716
      7712      7710      7713      7714      7712      7710      7713      7715
      7712      7710      7713      7716      7713      7716      7719      7720
      7713      7716      7719      7721      7713      7716      7719      7722
      7714      7713      7716      7717      7714      7713      7716      7718
      7714      7713      7716      7719      7715      7713      7716      7717
      7715      7713      7716      7718      7715      7713      7716      7719
      7716      7719      7722      7723      7716      7719      7722      7724
      7716      7719      7722      7725      7717      7716      7719      7720
      7717      7716      7719      7721      7717      7716      7719      7722
      7718      7716      7719      7720      7718      7716      7719      7721
      7718      7716      7719      7722      7719      7722      7725      7726
      7719      7722      7725      7727      7719      7722      7725      7728
      7720      7719      7722      7723      7720      7719      7722      7724
      7720      7719      7722      7725      7721      7719      7722      7723
      7721      7719      7722      7724      7721      7719      7722      7725
      7722      7725      7728      7729      7722      7725      7728      7730
      7722      7725      7728      7731      7723      7722      7725      7726
      7723      7722      7725      7727      7723      7722      7725      7728
      7724      7722      7725      7726      7724      7722      7725      7727
      7724      7722      7725      7728      7725      7728      7731      7732
      7725      7728      7731      7733      7725      7728      7731      7734
      7726      7725      7728      7729      7726      7725      7728      7730
      7726      7725      7728      7731      7727      7725      7728      7729
      7727      7725      7728      7730      7727      7725      7728      7731
      7728      7731      7734      7735      7728      7731      7734      7736
      7728      7731      7734      7737      7729      7728      7731      7732
      7729      7728      7731      7733      7729      7728      7731      7734
      7730      7728      7731      7732      7730      7728      7731      7733
      7730      7728      7731      7734      7731      7734      7737      7738
      7731      7734      7737      7739      7731      7734      7737      7740
      7732      7731      7734      7735      7732      7731      7734      7736
      7732      7731      7734      7737      7733      7731      7734      7735
      7733      7731      7734      7736      7733      7731      7734      7737
      7734      7737      7740      7741      7734      7737      7740      7742
      7734      7737      7740      7743      7735      7734      7737      7738
      7735      7734      7737      7739      7735      7734      7737      7740
      7736      7734      7737      7738      7736      7734      7737      7739
      7736      7734      7737      7740      7737      7740      7743      7744
      7737      7740      7743      7745      7737      7740      7743      7746
      7738      7737      7740      7741      7738      7737      7740      7742
      7738      7737      7740      7743      7739      7737      7740      7741
      7739      7737      7740      7742      7739      7737      7740      7743
      7740      7743      7746      7747      7740      7743      7746      7748
      7740      7743      7746      7749      7741      7740      7743      7744
      7741      7740      7743      7745      7741      7740      7743      7746
      7742      7740      7743      7744      7742      7740      7743      7745
      7742      7740      7743      7746      7743      7746      7749      7750
      7743      7746      7749      7751      7743      7746      7749      7752
      7744      7743      7746      7747      7744      7743      7746      7748
      7744      7743      7746      7749      7745      7743      7746      7747
      7745      7743      7746      7748      7745      7743      7746      7749
      7747      7746      7749      7750      7747      7746      7749      7751
      7747      7746      7749      7752      7748      7746      7749      7750
      7748      7746      7749      7751      7748      7746      7749      7752
      7753      7757      7760      7761      7753      7757      7760      7762
      7753      7757      7760      7766      7754      7753      7757      7758
      7754      7753      7757      7759      7754      7753      7757      7760
      7755      7753      7757      7758      7755      7753      7757      7759
      7755      7753      7757      7760      7756      7753      7757      7758
      7756      7753      7757      7759      7756      7753      7757      7760
      7757      7760      7766      7763      7758      7757      7760      7761
      7758      7757      7760      7762      7758      7757      7760      7766
      7759      7757      7760      7761      7759      7757      7760      7762
      7759      7757      7760      7766      7760      7766      7763      7764
      7760      7766      7763      7765      7760      7766      7763      7767
      7761      7760      7766      7763      7762      7760      7766      7763
      7763      7767      7768      7769      7763      7767      7768      7770
      7763      7767      7768      7771      7764      7763      7767      7768
      7765      7763      7767      7768      7766      7763      7767      7768
      7767      7768      7771      7772      7767      7768      7771      7773
      7767      7768      7771      7779      7768      7771      7773      7774
      7768      7771      7779      7780      7768      7771      7779      7781
      7768      7771      7779      7782      7769      7768      7771      7772
      7769      7768      7771      7773      7769      7768      7771      7779
      7770      7768      7771      7772      7770      7768      7771      7773
      7770      7768      7771      7779      7771      7773      7774      7775
      7771      7773      7774      7776      7771      7779      7782      7783
      7772      7771      7773      7774      7772      7771      7779      7780
      7772      7771      7779      7781      7772      7771      7779      7782
      7773      7771      7779      7780      7773      7771      7779      7781
      7773      7771      7779      7782      7773      7774      7776      7777
      7773      7774      7776      7778      7773      7774      7776      7788
      7774      7773      7771      7779      7774      7776      7788      7789
      7774      7776      7788      7790      7774      7776      7788      7791
      7775      7774      7776      7777      7775      7774      7776      7778
      7775      7774      7776      7788      7776      7788      7791      7792
      7776      7788      7791      7793      7776      7788      7791      7794
      7777      7776      7788      7789      7777      7776      7788      7790
      7777      7776      7788      7791      7778      7776      7788      7789
      7778      7776      7788      7790      7778      7776      7788      7791
      7779      7782      7783      7784      7779      7782      7783      7785
      7780      7779      7782      7783      7781      7779      7782      7783
      7782      7783      7785      7786      7782      7783      7785      7787
      7782      7783      7785      7835      7783      7785      7835      7836
      7783      7785      7835      7837      7783      7785      7835      7838
      7784      7783      7785      7786      7784      7783      7785      7787
      7784      7783      7785      7835      7785      7835      7838      7839
      7785      7835      7838      7840      7785      7835      7838      7841
      7786      7785      7835      7836      7786      7785      7835      7837
      7786      7785      7835      7838      7787      7785      7835      7836
      7787      7785      7835      7837      7787      7785      7835      7838
      7788      7791      7794      7795      7788      7791      7794      7796
      7788      7791      7794      7797      7789      7788      7791      7792
      7789      7788      7791      7793      7789      7788      7791      7794
      7790      7788      7791      7792      7790      7788      7791      7793
      7790      7788      7791      7794      7791      7794      7797      7798
      7791      7794      7797      7799      7791      7794      7797      7800
      7792      7791      7794      7795      7792      7791      7794      7796
      7792      7791      7794      7797      7793      7791      7794      7795
      7793      7791      7794      7796      7793      7791      7794      7797
      7794      7797      7800      7801      7794      7797      7800      7802
      7794      7797      7800      7803      7795      7794      7797      7798
      7795      7794      7797      7799      7795      7794      7797      7800
      7796      7794      7797      7798      7796      7794      7797      7799
      7796      7794      7797      7800      7797      7800      7803      7804
      7797      7800      7803      7805      7797      7800      7803      7806
      7798      7797      7800      7801      7798      7797      7800      7802
      7798      7797      7800      7803      7799      7797      7800      7801
      7799      7797      7800      7802      7799      7797      7800      7803
      7800      7803      7806      7807      7800      7803      7806      7808
      7801      7800      7803      7804      7801      7800      7803      7805
      7801      7800      7803      7806      7802      7800      7803      7804
      7802      7800      7803      7805      7802      7800      7803      7806
      7803      7806      7808      7809      7803      7806      7808      7810
      7804      7803      7806      7807      7804      7803      7806      7808
      7805      7803      7806      7807      7805      7803      7806      7808
      7806      7808      7810      7811      7806      7808      7810      7812
      7806      7808      7810      7813      7807      7806      7808      7809
      7807      7806      7808      7810      7808      7810      7813      7814
      7808      7810      7813      7815      7808      7810      7813      7816
      7809      7808      7810      7811      7809      7808      7810      7812
      7809      7808      7810      7813      7810      7813      7816      7817
      7810      7813      7816      7818      7810      7813      7816      7819
      7811      7810      7813      7814      7811      7810      7813      7815
      7811      7810      7813      7816      7812      7810      7813      7814
      7812      7810      7813      7815      7812      7810      7813      7816
      7813      7816      7819      7820      7813      7816      7819      7821
      7813      7816      7819      7822      7814      7813      7816      7817
      7814      7813      7816      7818      7814      7813      7816      7819
      7815      7813      7816      7817      7815      7813      7816      7818
      7815      7813      7816      7819      7816      7819      7822      7823
      7816      7819      7822      7824      7816      7819      7822      7825
      7817      7816      7819      7820      7817      7816      7819      7821
      7817      7816      7819      7822      7818      7816      7819      7820
      7818      7816      7819      7821      7818      7816      7819      7822
      7819      7822      7825      7826      7819      7822      7825      7827
      7819      7822      7825      7828      7820      7819      7822      7823
      7820      7819      7822      7824      7820      7819      7822      7825
      7821      7819      7822      7823      7821      7819      7822      7824
      7821      7819      7822      7825      7822      7825      7828      7829
      7822      7825      7828      7830      7822      7825      7828      7831
      7823      7822      7825      7826      7823      7822      7825      7827
      7823      7822      7825      7828      7824      7822      7825      7826
      7824      7822      7825      7827      7824      7822      7825      7828
      7825      7828      7831      7832      7825      7828      7831      7833
      7825      7828      7831      7834      7826      7825      7828      7829
      7826      7825      7828      7830      7826      7825      7828      7831
      7827      7825      7828      7829      7827      7825      7828      7830
      7827      7825      7828      7831      7829      7828      7831      7832
      7829      7828      7831      7833      7829      7828      7831      7834
      7830      7828      7831      7832      7830      7828      7831      7833
      7830      7828      7831      7834      7835      7838      7841      7842
      7835      7838      7841      7843      7835      7838      7841      7844
      7836      7835      7838      7839      7836      7835      7838      7840
      7836      7835      7838      7841      7837      7835      7838      7839
      7837      7835      7838      7840      7837      7835      7838      7841
      7838      7841      7844      7845      7838      7841      7844      7846
      7838      7841      7844      7847      7839      7838      7841      7842
      7839      7838      7841      7843      7839      7838      7841      7844
      7840      7838      7841      7842      7840      7838      7841      7843
      7840      7838      7841      7844      7841      7844      7847      7848
      7841      7844      7847      7849      7841      7844      7847      7850
      7842      7841      7844      7845      7842      7841      7844      7846
      7842      7841      7844      7847      7843      7841      7844      7845
      7843      7841      7844      7846      7843      7841      7844      7847
      7844      7847      7850      7851      7844      7847      7850      7852
      7844      7847      7850      7853      7845      7844      7847      7848
      7845      7844      7847      7849      7845      7844      7847      7850
      7846      7844      7847      7848      7846      7844      7847      7849
      7846      7844      7847      7850      7847      7850      7853      7854
      7847      7850      7853      7855      7847      7850      7853      7856
      7848      7847      7850      7851      7848      7847      7850      7852
      7848      7847      7850      7853      7849      7847      7850      7851
      7849      7847      7850      7852      7849      7847      7850      7853
      7850      7853      7856      7857      7850      7853      7856      7858
      7850      7853      7856      7859      7851      7850      7853      7854
      7851      7850      7853      7855      7851      7850      7853      7856
      7852      7850      7853      7854      7852      7850      7853      7855
      7852      7850      7853      7856      7853      7856      7859      7860
      7853      7856      7859      7861      7853      7856      7859      7862
      7854      7853      7856      7857      7854      7853      7856      7858
      7854      7853      7856      7859      7855      7853      7856      7857
      7855      7853      7856      7858      7855      7853      7856      7859
      7856      7859      7862      7863      7856      7859      7862      7864
      7856      7859      7862      7865      7857      7856      7859      7860
      7857      7856      7859      7861      7857      7856      7859      7862
      7858      7856      7859      7860      7858      7856      7859      7861
      7858      7856      7859      7862      7859      7862      7865      7866
      7859      7862      7865      7867      7859      7862      7865      7868
      7860      7859      7862      7863      7860      7859      7862      7864
      7860      7859      7862      7865      7861      7859      7862      7863
      7861      7859      7862      7864      7861      7859      7862      7865
      7862      7865      7868      7869      7862      7865      7868      7870
      7862      7865      7868      7871      7863      7862      7865      7866
      7863      7862      7865      7867      7863      7862      7865      7868
      7864      7862      7865      7866      7864      7862      7865      7867
      7864      7862      7865      7868      7865      7868      7871      7872
      7865      7868      7871      7873      7865      7868      7871      7874
      7866      7865      7868      7869      7866      7865      7868      7870
      7866      7865      7868      7871      7867      7865      7868      7869
      7867      7865      7868      7870      7867      7865      7868      7871
      7868      7871      7874      7875      7868      7871      7874      7876
      7868      7871      7874      7877      7869      7868      7871      7872
      7869      7868      7871      7873      7869      7868      7871      7874
      7870      7868      7871      7872      7870      7868      7871      7873
      7870      7868      7871      7874      7871      7874      7877      7878
      7871      7874      7877      7879      7871      7874      7877      7880
      7872      7871      7874      7875      7872      7871      7874      7876
      7872      7871      7874      7877      7873      7871      7874      7875
      7873      7871      7874      7876      7873      7871      7874      7877
      7874      7877      7880      7881      7874      7877      7880      7882
      7874      7877      7880      7883      7875      7874      7877      7878
      7875      7874      7877      7879      7875      7874      7877      7880
      7876      7874      7877      7878      7876      7874      7877      7879
      7876      7874      7877      7880      7878      7877      7880      7881
      7878      7877      7880      7882      7878      7877      7880      7883
      7879      7877      7880      7881      7879      7877      7880      7882
      7879      7877      7880      7883      7884      7897      7900      7901
      7884      7897      7900      7902      7884      7897      7900      7907
      7885      7884      7889      7890      7885      7884      7889      7891
      7885      7884      7889      7892      7885      7884      7893      7894
      7885      7884      7893      7895      7885      7884      7893      7896
      7885      7884      7897      7898      7885      7884      7897      7899
      7885      7884      7897      7900      7886      7885      7884      7889
      7886      7885      7884      7893      7886      7885      7884      7897
      7887      7885      7884      7889      7887      7885      7884      7893
      7887      7885      7884      7897      7888      7885      7884      7889
      7888      7885      7884      7893      7888      7885      7884      7897
      7889      7884      7893      7894      7889      7884      7893      7895
      7889      7884      7893      7896      7889      7884      7897      7898
      7889      7884      7897      7899      7889      7884      7897      7900
      7890      7889      7884      7893      7890      7889      7884      7897
      7891      7889      7884      7893      7891      7889      7884      7897
      7892      7889      7884      7893      7892      7889      7884      7897
      7893      7884      7897      7898      7893      7884      7897      7899
      7893      7884      7897      7900      7894      7893      7884      7897
      7895      7893      7884      7897      7896      7893      7884      7897
      7897      7900      7907      7903      7898      7897      7900      7901
      7898      7897      7900      7902      7898      7897      7900      7907
      7899      7897      7900      7901      7899      7897      7900      7902
      7899      7897      7900      7907      7900      7907      7903      7904
      7900      7907      7903      7905      7900      7907      7903      7906
      7901      7900      7907      7903      7902      7900      7907      7903
      7903      7906      7908      7909      7903      7906      7908      7910
      7903      7906      7908      7913      7904      7903      7906      7908
      7905      7903      7906      7908      7906      7908      7913      7911
      7906      7908      7913      7914      7906      7908      7913      7915
      7907      7903      7906      7908      7908      7913      7911      7912
      7908      7913      7911      7963      7908      7913      7915      7916
      7908      7913      7915      7917      7908      7913      7915      7919
      7909      7908      7913      7911      7909      7908      7913      7914
      7909      7908      7913      7915      7910      7908      7913      7911
      7910      7908      7913      7914      7910      7908      7913      7915
      7911      7913      7915      7916      7911      7913      7915      7917
      7911      7913      7915      7919      7911      7963      7965      7966
      7911      7963      7965      7967      7911      7963      7965      7968
      7912      7911      7913      7914      7912      7911      7913      7915
      7912      7911      7963      7964      7912      7911      7963      7965
      7913      7911      7963      7964      7913      7911      7963      7965
      7913      7915      7917      7918      7913      7915      7919      7920
      7913      7915      7919      7921      7914      7913      7911      7963
      7914      7913      7915      7916      7914      7913      7915      7917
      7914      7913      7915      7919      7915      7913      7911      7963
      7915      7919      7921      7922      7915      7919      7921      7923
      7916      7915      7917      7918      7916      7915      7919      7920
      7916      7915      7919      7921      7917      7915      7919      7920
      7917      7915      7919      7921      7918      7917      7915      7919
      7919      7921      7923      7924      7919      7921      7923      7925
      7919      7921      7923      7926      7920      7919      7921      7922
      7920      7919      7921      7923      7921      7923      7926      7927
      7921      7923      7926      7928      7921      7923      7926      7929
      7922      7921      7923      7924      7922      7921      7923      7925
      7922      7921      7923      7926      7923      7926      7929      7930
      7923      7926      7929      7931      7923      7926      7929      7932
      7924      7923      7926      7927      7924      7923      7926      7928
      7924      7923      7926      7929      7925      7923      7926      7927
      7925      7923      7926      7928      7925      7923      7926      7929
      7926      7929      7932      7933      7926      7929      7932      7934
      7926      7929      7932      7935      7927      7926      7929      7930
      7927      7926      7929      7931      7927      7926      7929      7932
      7928      7926      7929      7930      7928      7926      7929      7931
      7928      7926      7929      7932      7929      7932      7935      7936
      7929      7932      7935      7937      7929      7932      7935      7938
      7930      7929      7932      7933      7930      7929      7932      7934
      7930      7929      7932      7935      7931      7929      7932      7933
      7931      7929      7932      7934      7931      7929      7932      7935
      7932      7935      7938      7939      7932      7935      7938      7940
      7932      7935      7938      7941      7933      7932      7935      7936
      7933      7932      7935      7937      7933      7932      7935      7938
      7934      7932      7935      7936      7934      7932      7935      7937
      7934      7932      7935      7938      7935      7938      7941      7942
      7935      7938      7941      7943      7935      7938      7941      7944
      7936      7935      7938      7939      7936      7935      7938      7940
      7936      7935      7938      7941      7937      7935      7938      7939
      7937      7935      7938      7940      7937      7935      7938      7941
      7938      7941      7944      7945      7938      7941      7944      7946
      7938      7941      7944      7947      7939      7938      7941      7942
      7939      7938      7941      7943      7939      7938      7941      7944
      7940      7938      7941      7942      7940      7938      7941      7943
      7940      7938      7941      7944      7941      7944      7947      7948
      7941      7944      7947      7949      7941      7944      7947      7950
      7942      7941      7944      7945      7942      7941      7944      7946
      7942      7941      7944      7947      7943      7941      7944      7945
      7943      7941      7944      7946      7943      7941      7944      7947
      7944      7947      7950      7951      7944      7947      7950      7952
      7944      7947      7950      7953      7945      7944      7947      7948
      7945      7944      7947      7949      7945      7944      7947      7950
      7946      7944      7947      7948      7946      7944      7947      7949
      7946      7944      7947      7950      7947      7950      7953      7954
      7947      7950      7953      7955      7947      7950      7953      7956
      7948      7947      7950      7951      7948      7947      7950      7952
      7948      7947      7950      7953      7949      7947      7950      7951
      7949      7947      7950      7952      7949      7947      7950      7953
      7950      7953      7956      7957      7950      7953      7956      7958
      7950      7953      7956      7959      7951      7950      7953      7954
      7951      7950      7953      7955      7951      7950      7953      7956
      7952      7950      7953      7954      7952      7950      7953      7955
      7952      7950      7953      7956      7953      7956      7959      7960
      7953      7956      7959      7961      7953      7956      7959      7962
      7954      7953      7956      7957      7954      7953      7956      7958
      7954      7953      7956      7959      7955      7953      7956      7957
      7955      7953      7956      7958      7955      7953      7956      7959
      7957      7956      7959      7960      7957      7956      7959      7961
      7957      7956      7959      7962      7958      7956      7959      7960
      7958      7956      7959      7961      7958      7956      7959      7962
      7963      7965      7968      7969      7963      7965      7968      7970
      7963      7965      7968      7971      7964      7963      7965      7966
      7964      7963      7965      7967      7964      7963      7965      7968
      7965      7968      7971      7972      7965      7968      7971      7973
      7965      7968      7971      7974      7966      7965      7968      7969
      7966      7965      7968      7970      7966      7965      7968      7971
      7967      7965      7968      7969      7967      7965      7968      7970
      7967      7965      7968      7971      7968      7971      7974      7975
      7968      7971      7974      7976      7968      7971      7974      7977
      7969      7968      7971      7972      7969      7968      7971      7973
      7969      7968      7971      7974      7970      7968      7971      7972
      7970      7968      7971      7973      7970      7968      7971      7974
      7971      7974      7977      7978      7971      7974      7977      7979
      7971      7974      7977      7980      7972      7971      7974      7975
      7972      7971      7974      7976      7972      7971      7974      7977
      7973      7971      7974      7975      7973      7971      7974      7976
      7973      7971      7974      7977      7974      7977      7980      7981
      7974      7977      7980      7982      7974      7977      7980      7983
      7975      7974      7977      7978      7975      7974      7977      7979
      7975      7974      7977      7980      7976      7974      7977      7978
      7976      7974      7977      7979      7976      7974      7977      7980
      7977      7980      7983      7984      7977      7980      7983      7985
      7977      7980      7983      7986      7978      7977      7980      7981
      7978      7977      7980      7982      7978      7977      7980      7983
      7979      7977      7980      7981      7979      7977      7980      7982
      7979      7977      7980      7983      7980      7983      7986      7987
      7980      7983      7986      7988      7981      7980      7983      7984
      7981      7980      7983      7985      7981      7980      7983      7986
      7982      7980      7983      7984      7982      7980      7983      7985
      7982      7980      7983      7986      7983      7986      7988      7989
      7983      7986      7988      7990      7984      7983      7986      7987
      7984      7983      7986      7988      7985      7983      7986      7987
      7985      7983      7986      7988      7986      7988      7990      7991
      7986      7988      7990      7992      7986      7988      7990      7993
      7987      7986      7988      7989      7987      7986      7988      7990
      7988      7990      7993      7994      7988      7990      7993      7995
      7988      7990      7993      7996      7989      7988      7990      7991
      7989      7988      7990      7992      7989      7988      7990      7993
      7990      7993      7996      7997      7990      7993      7996      7998
      7990      7993      7996      7999      7991      7990      7993      7994
      7991      7990      7993      7995      7991      7990      7993      7996
      7992      7990      7993      7994      7992      7990      7993      7995
      7992      7990      7993      7996      7993      7996      7999      8000
      7993      7996      7999      8001      7993      7996      7999      8002
      7994      7993      7996      7997      7994      7993      7996      7998
      7994      7993      7996      7999      7995      7993      7996      7997
      7995      7993      7996      7998      7995      7993      7996      7999
      7996      7999      8002      8003      7996      7999      8002      8004
      7996      7999      8002      8005      7997      7996      7999      8000
      7997      7996      7999      8001      7997      7996      7999      8002
      7998      7996      7999      8000      7998      7996      7999      8001
      7998      7996      7999      8002      7999      8002      8005      8006
      7999      8002      8005      8007      7999      8002      8005      8008
      8000      7999      8002      8003      8000      7999      8002      8004
      8000      7999      8002      8005      8001      7999      8002      8003
      8001      7999      8002      8004      8001      7999      8002      8005
      8002      8005      8008      8009      8002      8005      8008      8010
      8002      8005      8008      8011      8003      8002      8005      8006
      8003      8002      8005      8007      8003      8002      8005      8008
      8004      8002      8005      8006      8004      8002      8005      8007
      8004      8002      8005      8008      8005      8008      8011      8012
      8005      8008      8011      8013      8005      8008      8011      8014
      8006      8005      8008      8009      8006      8005      8008      8010
      8006      8005      8008      8011      8007      8005      8008      8009
      8007      8005      8008      8010      8007      8005      8008      8011
      8009      8008      8011      8012      8009      8008      8011      8013
      8009      8008      8011      8014      8010      8008      8011      8012
      8010      8008      8011      8013      8010      8008      8011      8014
      8015      8016      8031      8032      8015      8016      8031      8033
      8015      8016      8031      8037      8016      8015      8019      8020
      8016      8015      8019      8021      8016      8015      8019      8022
      8016      8015      8023      8024      8016      8015      8023      8025
      8016      8015      8023      8026      8016      8015      8027      8028
      8016      8015      8027      8029      8016      8015      8027      8030
      8016      8031      8037      8034      8017      8016      8015      8019
      8017      8016      8015      8023      8017      8016      8015      8027
      8017      8016      8031      8032      8017      8016      8031      8033
      8017      8016      8031      8037      8018      8016      8015      8019
      8018      8016      8015      8023      8018      8016      8015      8027
      8018      8016      8031      8032      8018      8016      8031      8033
      8018      8016      8031      8037      8019      8015      8016      8031
      8019      8015      8023      8024      8019      8015      8023      8025
      8019      8015      8023      8026      8019      8015      8027      8028
      8019      8015      8027      8029      8019      8015      8027      8030
      8020      8019      8015      8023      8020      8019      8015      8027
      8021      8019      8015      8023      8021      8019      8015      8027
      8022      8019      8015      8023      8022      8019      8015      8027
      8023      8015      8016      8031      8023      8015      8027      8028
      8023      8015      8027      8029      8023      8015      8027      8030
      8024      8023      8015      8027      8025      8023      8015      8027
      8026      8023      8015      8027      8027      8015      8016      8031
      8031      8037      8034      8035      8031      8037      8034      8036
      8031      8037      8034      8038      8032      8031      8037      8034
      8033      8031      8037      8034      8034      8038      8039      8040
      8034      8038      8039      8041      8034      8038      8039      8042
      8035      8034      8038      8039      8036      8034      8038      8039
      8037      8034      8038      8039      8038      8039      8042      8043
      8038      8039      8042      8044      8038      8039      8042      8050
      8039      8042      8044      8045      8039      8042      8050      8051
      8039      8042      8050      8052      8039      8042      8050      8053
      8040      8039      8042      8043      8040      8039      8042      8044
      8040      8039      8042      8050      8041      8039      8042      8043
      8041      8039      8042      8044      8041      8039      8042      8050
      8042      8044      8045      8046      8042      8044      8045      8047
      8042      8050      8053      8054      8043      8042      8044      8045
      8043      8042      8050      8051      8043      8042      8050      8052
      8043      8042      8050      8053      8044      8042      8050      8051
      8044      8042      8050      8052      8044      8042      8050      8053
      8044      8045      8047      8048      8044      8045      8047      8049
      8044      8045      8047      8059      8045      8044      8042      8050
      8045      8047      8059      8060      8045      8047      8059      8061
      8045      8047      8059      8062      8046      8045      8047      8048
      8046      8045      8047      8049      8046      8045      8047      8059
      8047      8059      8062      8063      8047      8059      8062      8064
      8047      8059      8062      8065      8048      8047      8059      8060
      8048      8047      8059      8061      8048      8047      8059      8062
      8049      8047      8059      8060      8049      8047      8059      8061
      8049      8047      8059      8062      8050      8053      8054      8055
      8050      8053      8054      8056      8051      8050      8053      8054
      8052      8050      8053      8054      8053      8054      8056      8057
      8053      8054      8056      8058      8053      8054      8056      8106
      8054      8056      8106      8107      8054      8056      8106      8108
      8054      8056      8106      8109      8055      8054      8056      8057
      8055      8054      8056      8058      8055      8054      8056      8106
      8056      8106      8109      8110      8056      8106      8109      8111
      8056      8106      8109      8112      8057      8056      8106      8107
      8057      8056      8106      8108      8057      8056      8106      8109
      8058      8056      8106      8107      8058      8056      8106      8108
      8058      8056      8106      8109      8059      8062      8065      8066
      8059      8062      8065      8067      8060      8059      8062      8063
      8060      8059      8062      8064      8060      8059      8062      8065
      8061      8059      8062      8063      8061      8059      8062      8064
      8061      8059      8062      8065      8062      8065      8067      8068
      8062      8065      8067      8069      8063      8062      8065      8066
      8063      8062      8065      8067      8064      8062      8065      8066
      8064      8062      8065      8067      8065      8067      8069      8070
      8065      8067      8069      8071      8065      8067      8069      8072
      8066      8065      8067      8068      8066      8065      8067      8069
      8067      8069      8072      8073      8067      8069      8072      8074
      8068      8067      8069      8070      8068      8067      8069      8071
      8068      8067      8069      8072      8069      8072      8074      8075
      8069      8072      8074      8076      8070      8069      8072      8073
      8070      8069      8072      8074      8071      8069      8072      8073
      8071      8069      8072      8074      8072      8074      8076      8077
      8072      8074      8076      8078      8072      8074      8076      8079
      8073      8072      8074      8075      8073      8072      8074      8076
      8074      8076      8079      8080      8074      8076      8079      8081
      8075      8074      8076      8077      8075      8074      8076      8078
      8075      8074      8076      8079      8076      8079      8081      8082
      8076      8079      8081      8083      8077      8076      8079      8080
      8077      8076      8079      8081      8078      8076      8079      8080
      8078      8076      8079      8081      8079      8081      8083      8084
      8079      8081      8083      8085      8079      8081      8083      8086
      8080      8079      8081      8082      8080      8079      8081      8083
      8081      8083      8086      8087      8081      8083      8086      8088
      8082      8081      8083      8084      8082      8081      8083      8085
      8082      8081      8083      8086      8083      8086      8088      8089
      8083      8086      8088      8090      8084      8083      8086      8087
      8084      8083      8086      8088      8085      8083      8086      8087
      8085      8083      8086      8088      8086      8088      8090      8091
      8086      8088      8090      8092      8086      8088      8090      8093
      8087      8086      8088      8089      8087      8086      8088      8090
      8088      8090      8093      8094      8088      8090      8093      8095
      8088      8090      8093      8096      8089      8088      8090      8091
      8089      8088      8090      8092      8089      8088      8090      8093
      8090      8093      8096      8097      8090      8093      8096      8098
      8090      8093      8096      8099      8091      8090      8093      8094
      8091      8090      8093      8095      8091      8090      8093      8096
      8092      8090      8093      8094      8092      8090      8093      8095
      8092      8090      8093      8096      8093      8096      8099      8100
      8093      8096      8099      8101      8093      8096      8099      8102
      8094      8093      8096      8097      8094      8093      8096      8098
      8094      8093      8096      8099      8095      8093      8096      8097
      8095      8093      8096      8098      8095      8093      8096      8099
      8096      8099      8102      8103      8096      8099      8102      8104
      8096      8099      8102      8105      8097      8096      8099      8100
      8097      8096      8099      8101      8097      8096      8099      8102
      8098      8096      8099      8100      8098      8096      8099      8101
      8098      8096      8099      8102      8100      8099      8102      8103
      8100      8099      8102      8104      8100      8099      8102      8105
      8101      8099      8102      8103      8101      8099      8102      8104
      8101      8099      8102      8105      8106      8109      8112      8113
      8106      8109      8112      8114      8106      8109      8112      8115
      8107      8106      8109      8110      8107      8106      8109      8111
      8107      8106      8109      8112      8108      8106      8109      8110
      8108      8106      8109      8111      8108      8106      8109      8112
      8109      8112      8115      8116      8109      8112      8115      8117
      8109      8112      8115      8118      8110      8109      8112      8113
      8110      8109      8112      8114      8110      8109      8112      8115
      8111      8109      8112      8113      8111      8109      8112      8114
      8111      8109      8112      8115      8112      8115      8118      8119
      8112      8115      8118      8120      8112      8115      8118      8121
      8113      8112      8115      8116      8113      8112      8115      8117
      8113      8112      8115      8118      8114      8112      8115      8116
      8114      8112      8115      8117      8114      8112      8115      8118
      8115      8118      8121      8122      8115      8118      8121      8123
      8115      8118      8121      8124      8116      8115      8118      8119
      8116      8115      8118      8120      8116      8115      8118      8121
      8117      8115      8118      8119      8117      8115      8118      8120
      8117      8115      8118      8121      8118      8121      8124      8125
      8118      8121      8124      8126      8118      8121      8124      8127
      8119      8118      8121      8122      8119      8118      8121      8123
      8119      8118      8121      8124      8120      8118      8121      8122
      8120      8118      8121      8123      8120      8118      8121      8124
      8121      8124      8127      8128      8121      8124      8127      8129
      8121      8124      8127      8130      8122      8121      8124      8125
      8122      8121      8124      8126      8122      8121      8124      8127
      8123      8121      8124      8125      8123      8121      8124      8126
      8123      8121      8124      8127      8124      8127      8130      8131
      8124      8127      8130      8132      8124      8127      8130      8133
      8125      8124      8127      8128      8125      8124      8127      8129
      8125      8124      8127      8130      8126      8124      8127      8128
      8126      8124      8127      8129      8126      8124      8127      8130
      8127      8130      8133      8134      8127      8130      8133      8135
      8127      8130      8133      8136      8128      8127      8130      8131
      8128      8127      8130      8132      8128      8127      8130      8133
      8129      8127      8130      8131      8129      8127      8130      8132
      8129      8127      8130      8133      8130      8133      8136      8137
      8130      8133      8136      8138      8130      8133      8136      8139
      8131      8130      8133      8134      8131      8130      8133      8135
      8131      8130      8133      8136      8132      8130      8133      8134
      8132      8130      8133      8135      8132      8130      8133      8136
      8133      8136      8139      8140      8133      8136      8139      8141
      8133      8136      8139      8142      8134      8133      8136      8137
      8134      8133      8136      8138      8134      8133      8136      8139
      8135      8133      8136      8137      8135      8133      8136      8138
      8135      8133      8136      8139      8136      8139      8142      8143
      8136      8139      8142      8144      8136      8139      8142      8145
      8137      8136      8139      8140      8137      8136      8139      8141
      8137      8136      8139      8142      8138      8136      8139      8140
      8138      8136      8139      8141      8138      8136      8139      8142
      8139      8142      8145      8146      8139      8142      8145      8147
      8139      8142      8145      8148      8140      8139      8142      8143
      8140      8139      8142      8144      8140      8139      8142      8145
      8141      8139      8142      8143      8141      8139      8142      8144
      8141      8139      8142      8145      8142      8145      8148      8149
      8142      8145      8148      8150      8142      8145      8148      8151
      8143      8142      8145      8146      8143      8142      8145      8147
      8143      8142      8145      8148      8144      8142      8145      8146
      8144      8142      8145      8147      8144      8142      8145      8148
      8145      8148      8151      8152      8145      8148      8151      8153
      8145      8148      8151      8154      8146      8145      8148      8149
      8146      8145      8148      8150      8146      8145      8148      8151
      8147      8145      8148      8149      8147      8145      8148      8150
      8147      8145      8148      8151      8149      8148      8151      8152
      8149      8148      8151      8153      8149      8148      8151      8154
      8150      8148      8151      8152      8150      8148      8151      8153
      8150      8148      8151      8154      8155      8159      8162      8163
      8155      8159      8162      8193      8155      8201      8198      8193
      8155      8201      8198      8199      8155      8201      8198      8200
      8156      8155      8157      8158      8156      8155      8159      8160
      8156      8155      8159      8161      8156      8155      8159      8162
      8156      8155      8201      8198      8156      8155      8201      8202
      8156      8155      8201      8203      8157      8155      8159      8160
      8157      8155      8159      8161      8157      8155      8159      8162
      8157      8155      8201      8198      8157      8155      8201      8202
      8157      8155      8201      8203      8158      8157      8155      8159
      8158      8157      8155      8201      8159      8155      8201      8198
      8159      8155      8201      8202      8159      8155      8201      8203
      8159      8162      8163      8164      8159      8162      8163      8165
      8159      8162      8193      8191      8159      8162      8193      8194
      8159      8162      8193      8198      8160      8159      8155      8201
      8160      8159      8162      8163      8160      8159      8162      8193
      8161      8159      8155      8201      8161      8159      8162      8163
      8161      8159      8162      8193      8162      8159      8155      8201
      8162      8163      8165      8166      8162      8163      8165      8167
      8162      8163      8165      8168      8162      8193      8191      8168
      8162      8193      8191      8188      8162      8193      8191      8192
      8162      8193      8194      8195      8162      8193      8194      8196
      8162      8193      8194      8197      8162      8193      8198      8199
      8162      8193      8198      8200      8162      8193      8198      8201
      8163      8162      8193      8191      8163      8162      8193      8194
      8163      8162      8193      8198      8163      8165      8168      8169
      8163      8165      8168      8170      8163      8165      8168      8191
      8164      8163      8162      8193      8164      8163      8165      8166
      8164      8163      8165      8167      8164      8163      8165      8168
      8165      8163      8162      8193      8165      8168      8170      8171
      8165      8168      8170      8172      8165      8168      8170      8180
      8165      8168      8191      8188      8165      8168      8191      8192
      8165      8168      8191      8193      8166      8165      8168      8169
      8166      8165      8168      8170      8166      8165      8168      8191
      8167      8165      8168      8169      8167      8165      8168      8170
      8167      8165      8168      8191      8168      8170      8172      8173
      8168      8170      8172      8174      8168      8170      8172      8175
      8168      8170      8180      8178      8168      8170      8180      8181
      8168      8170      8180      8185      8168      8191      8188      8185
      8168      8191      8188      8189      8168      8191      8188      8190
      8168      8191      8193      8194      8168      8191      8193      8198
      8169      8168      8170      8171      8169      8168      8170      8172
      8169      8168      8170      8180      8169      8168      8191      8188
      8169      8168      8191      8192      8169      8168      8191      8193
      8170      8168      8191      8188      8170      8168      8191      8192
      8170      8168      8191      8193      8170      8172      8175      8176
      8170      8172      8175      8177      8170      8172      8175      8178
      8170      8180      8178      8175      8170      8180      8178      8179
      8170      8180      8178      8204      8170      8180      8181      8182
      8170      8180      8181      8183      8170      8180      8181      8184
      8170      8180      8185      8186      8170      8180      8185      8187
      8170      8180      8185      8188      8171      8170      8168      8191
      8171      8170      8172      8173      8171      8170      8172      8174
      8171      8170      8172      8175      8171      8170      8180      8178
      8171      8170      8180      8181      8171      8170      8180      8185
      8172      8170      8168      8191      8172      8170      8180      8178
      8172      8170      8180      8181      8172      8170      8180      8185
      8172      8175      8178      8179      8172      8175      8178      8180
      8172      8175      8178      8204      8173      8172      8170      8180
      8173      8172      8175      8176      8173      8172      8175      8177
      8173      8172      8175      8178      8174      8172      8170      8180
      8174      8172      8175      8176      8174      8172      8175      8177
      8174      8172      8175      8178      8175      8172      8170      8180
      8175      8178      8180      8181      8175      8178      8180      8185
      8175      8178      8204      8205      8175      8178      8204      8206
      8175      8178      8204      8210      8176      8175      8178      8179
      8176      8175      8178      8180      8176      8175      8178      8204
      8177      8175      8178      8179      8177      8175      8178      8180
      8177      8175      8178      8204      8178      8180      8181      8182
      8178      8180      8181      8183      8178      8180      8181      8184
      8178      8180      8185      8186      8178      8180      8185      8187
      8178      8180      8185      8188      8178      8204      8206      8207
      8178      8204      8206      8208      8178      8204      8206      8209
      8178      8204      8210      8211      8178      8204      8210      8212
      8178      8204      8210      8213      8179      8178      8180      8181
      8179      8178      8180      8185      8179      8178      8204      8205
      8179      8178      8204      8206      8179      8178      8204      8210
      8180      8170      8168      8191      8180      8178      8204      8205
      8180      8178      8204      8206      8180      8178      8204      8210
      8180      8185      8188      8189      8180      8185      8188      8190
      8180      8185      8188      8191      8181      8180      8178      8204
      8181      8180      8185      8186      8181      8180      8185      8187
      8181      8180      8185      8188      8182      8181      8180      8185
      8183      8181      8180      8185      8184      8181      8180      8185
      8185      8180      8178      8204      8185      8188      8191      8192
      8185      8188      8191      8193      8186      8185      8188      8189
      8186      8185      8188      8190      8186      8185      8188      8191
      8187      8185      8188      8189      8187      8185      8188      8190
      8187      8185      8188      8191      8188      8191      8193      8194
      8188      8191      8193      8198      8189      8188      8191      8192
      8189      8188      8191      8193      8190      8188      8191      8192
      8190      8188      8191      8193      8191      8193      8194      8195
      8191      8193      8194      8196      8191      8193      8194      8197
      8191      8193      8198      8199      8191      8193      8198      8200
      8191      8193      8198      8201      8192      8191      8193      8194
      8192      8191      8193      8198      8193      8198      8201      8202
      8193      8198      8201      8203      8194      8193      8198      8199
      8194      8193      8198      8200      8194      8193      8198      8201
      8195      8194      8193      8198      8196      8194      8193      8198
      8197      8194      8193      8198      8199      8198      8201      8202
      8199      8198      8201      8203      8200      8198      8201      8202
      8200      8198      8201      8203      8204      8210      8213      8214
      8204      8210      8213      8215      8204      8210      8213      8216
      8205      8204      8206      8207      8205      8204      8206      8208
      8205      8204      8206      8209      8205      8204      8210      8211
      8205      8204      8210      8212      8205      8204      8210      8213
      8206      8204      8210      8211      8206      8204      8210      8212
      8206      8204      8210      8213      8207      8206      8204      8210
      8208      8206      8204      8210      8209      8206      8204      8210
      8210      8213      8216      8217      8210      8213      8216      8218
      8210      8213      8216      8219      8211      8210      8213      8214
      8211      8210      8213      8215      8211      8210      8213      8216
      8212      8210      8213      8214      8212      8210      8213      8215
      8212      8210      8213      8216      8213      8216      8219      8220
      8213      8216      8219      8221      8213      8216      8219      8225
      8214      8213      8216      8217      8214      8213      8216      8218
      8214      8213      8216      8219      8215      8213      8216      8217
      8215      8213      8216      8218      8215      8213      8216      8219
      8216      8219      8221      8222      8216      8219      8221      8223
      8216      8219      8221      8224      8216      8219      8225      8226
      8216      8219      8225      8227      8216      8219      8225      8228
      8217      8216      8219      8220      8217      8216      8219      8221
      8217      8216      8219      8225      8218      8216      8219      8220
      8218      8216      8219      8221      8218      8216      8219      8225
      8220      8219      8221      8222      8220      8219      8221      8223
      8220      8219      8221      8224      8220      8219      8225      8226
      8220      8219      8225      8227      8220      8219      8225      8228
      8221      8219      8225      8226      8221      8219      8225      8227
      8221      8219      8225      8228      8222      8221      8219      8225
      8223      8221      8219      8225      8224      8221      8219      8225
      8229      8242      8245      8246      8229      8242      8245      8247
      8229      8242      8245      8252      8230      8229      8234      8235
      8230      8229      8234      8236      8230      8229      8234      8237
      8230      8229      8238      8239      8230      8229      8238      8240
      8230      8229      8238      8241      8230      8229      8242      8243
      8230      8229      8242      8244      8230      8229      8242      8245
      8231      8230      8229      8234      8231      8230      8229      8238
      8231      8230      8229      8242      8232      8230      8229      8234
      8232      8230      8229      8238      8232      8230      8229      8242
      8233      8230      8229      8234      8233      8230      8229      8238
      8233      8230      8229      8242      8234      8229      8238      8239
      8234      8229      8238      8240      8234      8229      8238      8241
      8234      8229      8242      8243      8234      8229      8242      8244
      8234      8229      8242      8245      8235      8234      8229      8238
      8235      8234      8229      8242      8236      8234      8229      8238
      8236      8234      8229      8242      8237      8234      8229      8238
      8237      8234      8229      8242      8238      8229      8242      8243
      8238      8229      8242      8244      8238      8229      8242      8245
      8239      8238      8229      8242      8240      8238      8229      8242
      8241      8238      8229      8242      8242      8245      8252      8248
      8243      8242      8245      8246      8243      8242      8245      8247
      8243      8242      8245      8252      8244      8242      8245      8246
      8244      8242      8245      8247      8244      8242      8245      8252
      8245      8252      8248      8249      8245      8252      8248      8250
      8245      8252      8248      8251      8246      8245      8252      8248
      8247      8245      8252      8248      8248      8251      8253      8254
      8248      8251      8253      8255      8248      8251      8253      8258
      8249      8248      8251      8253      8250      8248      8251      8253
      8251      8253      8258      8256      8251      8253      8258      8259
      8251      8253      8258      8260      8252      8248      8251      8253
      8253      8258      8256      8257      8253      8258      8256      8308
      8253      8258      8260      8261      8253      8258      8260      8262
      8253      8258      8260      8264      8254      8253      8258      8256
      8254      8253      8258      8259      8254      8253      8258      8260
      8255      8253      8258      8256      8255      8253      8258      8259
      8255      8253      8258      8260      8256      8258      8260      8261
      8256      8258      8260      8262      8256      8258      8260      8264
      8256      8308      8310      8311      8256      8308      8310      8312
      8256      8308      8310      8313      8257      8256      8258      8259
      8257      8256      8258      8260      8257      8256      8308      8309
      8257      8256      8308      8310      8258      8256      8308      8309
      8258      8256      8308      8310      8258      8260      8262      8263
      8258      8260      8264      8265      8258      8260      8264      8266
      8259      8258      8256      8308      8259      8258      8260      8261
      8259      8258      8260      8262      8259      8258      8260      8264
      8260      8258      8256      8308      8260      8264      8266      8267
      8260      8264      8266      8268      8261      8260      8262      8263
      8261      8260      8264      8265      8261      8260      8264      8266
      8262      8260      8264      8265      8262      8260      8264      8266
      8263      8262      8260      8264      8264      8266      8268      8269
      8264      8266      8268      8270      8264      8266      8268      8271
      8265      8264      8266      8267      8265      8264      8266      8268
      8266      8268      8271      8272      8266      8268      8271      8273
      8266      8268      8271      8274      8267      8266      8268      8269
      8267      8266      8268      8270      8267      8266      8268      8271
      8268      8271      8274      8275      8268      8271      8274      8276
      8268      8271      8274      8277      8269      8268      8271      8272
      8269      8268      8271      8273      8269      8268      8271      8274
      8270      8268      8271      8272      8270      8268      8271      8273
      8270      8268      8271      8274      8271      8274      8277      8278
      8271      8274      8277      8279      8271      8274      8277      8280
      8272      8271      8274      8275      8272      8271      8274      8276
      8272      8271      8274      8277      8273      8271      8274      8275
      8273      8271      8274      8276      8273      8271      8274      8277
      8274      8277      8280      8281      8274      8277      8280      8282
      8274      8277      8280      8283      8275      8274      8277      8278
      8275      8274      8277      8279      8275      8274      8277      8280
      8276      8274      8277      8278      8276      8274      8277      8279
      8276      8274      8277      8280      8277      8280      8283      8284
      8277      8280      8283      8285      8277      8280      8283      8286
      8278      8277      8280      8281      8278      8277      8280      8282
      8278      8277      8280      8283      8279      8277      8280      8281
      8279      8277      8280      8282      8279      8277      8280      8283
      8280      8283      8286      8287      8280      8283      8286      8288
      8280      8283      8286      8289      8281      8280      8283      8284
      8281      8280      8283      8285      8281      8280      8283      8286
      8282      8280      8283      8284      8282      8280      8283      8285
      8282      8280      8283      8286      8283      8286      8289      8290
      8283      8286      8289      8291      8283      8286      8289      8292
      8284      8283      8286      8287      8284      8283      8286      8288
      8284      8283      8286      8289      8285      8283      8286      8287
      8285      8283      8286      8288      8285      8283      8286      8289
      8286      8289      8292      8293      8286      8289      8292      8294
      8286      8289      8292      8295      8287      8286      8289      8290
      8287      8286      8289      8291      8287      8286      8289      8292
      8288      8286      8289      8290      8288      8286      8289      8291
      8288      8286      8289      8292      8289      8292      8295      8296
      8289      8292      8295      8297      8289      8292      8295      8298
      8290      8289      8292      8293      8290      8289      8292      8294
      8290      8289      8292      8295      8291      8289      8292      8293
      8291      8289      8292      8294      8291      8289      8292      8295
      8292      8295      8298      8299      8292      8295      8298      8300
      8292      8295      8298      8301      8293      8292      8295      8296
      8293      8292      8295      8297      8293      8292      8295      8298
      8294      8292      8295      8296      8294      8292      8295      8297
      8294      8292      8295      8298      8295      8298      8301      8302
      8295      8298      8301      8303      8295      8298      8301      8304
      8296      8295      8298      8299      8296      8295      8298      8300
      8296      8295      8298      8301      8297      8295      8298      8299
      8297      8295      8298      8300      8297      8295      8298      8301
      8298      8301      8304      8305      8298      8301      8304      8306
      8298      8301      8304      8307      8299      8298      8301      8302
      8299      8298      8301      8303      8299      8298      8301      8304
      8300      8298      8301      8302      8300      8298      8301      8303
      8300      8298      8301      8304      8302      8301      8304      8305
      8302      8301      8304      8306      8302      8301      8304      8307
      8303      8301      8304      8305      8303      8301      8304      8306
      8303      8301      8304      8307      8308      8310      8313      8314
      8308      8310      8313      8315      8308      8310      8313      8316
      8309      8308      8310      8311      8309      8308      8310      8312
      8309      8308      8310      8313      8310      8313      8316      8317
      8310      8313      8316      8318      8310      8313      8316      8319
      8311      8310      8313      8314      8311      8310      8313      8315
      8311      8310      8313      8316      8312      8310      8313      8314
      8312      8310      8313      8315      8312      8310      8313      8316
      8313      8316      8319      8320      8313      8316      8319      8321
      8313      8316      8319      8322      8314      8313      8316      8317
      8314      8313      8316      8318      8314      8313      8316      8319
      8315      8313      8316      8317      8315      8313      8316      8318
      8315      8313      8316      8319      8316      8319      8322      8323
      8316      8319      8322      8324      8316      8319      8322      8325
      8317      8316      8319      8320      8317      8316      8319      8321
      8317      8316      8319      8322      8318      8316      8319      8320
      8318      8316      8319      8321      8318      8316      8319      8322
      8319      8322      8325      8326      8319      8322      8325      8327
      8319      8322      8325      8328      8320      8319      8322      8323
      8320      8319      8322      8324      8320      8319      8322      8325
      8321      8319      8322      8323      8321      8319      8322      8324
      8321      8319      8322      8325      8322      8325      8328      8329
      8322      8325      8328      8330      8322      8325      8328      8331
      8323      8322      8325      8326      8323      8322      8325      8327
      8323      8322      8325      8328      8324      8322      8325      8326
      8324      8322      8325      8327      8324      8322      8325      8328
      8325      8328      8331      8332      8325      8328      8331      8333
      8326      8325      8328      8329      8326      8325      8328      8330
      8326      8325      8328      8331      8327      8325      8328      8329
      8327      8325      8328      8330      8327      8325      8328      8331
      8328      8331      8333      8334      8328      8331      8333      8335
      8329      8328      8331      8332      8329      8328      8331      8333
      8330      8328      8331      8332      8330      8328      8331      8333
      8331      8333      8335      8336      8331      8333      8335      8337
      8331      8333      8335      8338      8332      8331      8333      8334
      8332      8331      8333      8335      8333      8335      8338      8339
      8333      8335      8338      8340      8333      8335      8338      8341
      8334      8333      8335      8336      8334      8333      8335      8337
      8334      8333      8335      8338      8335      8338      8341      8342
      8335      8338      8341      8343      8335      8338      8341      8344
      8336      8335      8338      8339      8336      8335      8338      8340
      8336      8335      8338      8341      8337      8335      8338      8339
      8337      8335      8338      8340      8337      8335      8338      8341
      8338      8341      8344      8345      8338      8341      8344      8346
      8338      8341      8344      8347      8339      8338      8341      8342
      8339      8338      8341      8343      8339      8338      8341      8344
      8340      8338      8341      8342      8340      8338      8341      8343
      8340      8338      8341      8344      8341      8344      8347      8348
      8341      8344      8347      8349      8341      8344      8347      8350
      8342      8341      8344      8345      8342      8341      8344      8346
      8342      8341      8344      8347      8343      8341      8344      8345
      8343      8341      8344      8346      8343      8341      8344      8347
      8344      8347      8350      8351      8344      8347      8350      8352
      8344      8347      8350      8353      8345      8344      8347      8348
      8345      8344      8347      8349      8345      8344      8347      8350
      8346      8344      8347      8348      8346      8344      8347      8349
      8346      8344      8347      8350      8347      8350      8353      8354
      8347      8350      8353      8355      8347      8350      8353      8356
      8348      8347      8350      8351      8348      8347      8350      8352
      8348      8347      8350      8353      8349      8347      8350      8351
      8349      8347      8350      8352      8349      8347      8350      8353
      8350      8353      8356      8357      8350      8353      8356      8358
      8350      8353      8356      8359      8351      8350      8353      8354
      8351      8350      8353      8355      8351      8350      8353      8356
      8352      8350      8353      8354      8352      8350      8353      8355
      8352      8350      8353      8356      8354      8353      8356      8357
      8354      8353      8356      8358      8354      8353      8356      8359
      8355      8353      8356      8357      8355      8353      8356      8358
      8355      8353      8356      8359      8360      8373      8376      8377
      8360      8373      8376      8378      8360      8373      8376      8382
      8361      8360      8365      8366      8361      8360      8365      8367
      8361      8360      8365      8368      8361      8360      8369      8370
      8361      8360      8369      8371      8361      8360      8369      8372
      8361      8360      8373      8374      8361      8360      8373      8375
      8361      8360      8373      8376      8362      8361      8360      8365
      8362      8361      8360      8369      8362      8361      8360      8373
      8363      8361      8360      8365      8363      8361      8360      8369
      8363      8361      8360      8373      8364      8361      8360      8365
      8364      8361      8360      8369      8364      8361      8360      8373
      8365      8360      8369      8370      8365      8360      8369      8371
      8365      8360      8369      8372      8365      8360      8373      8374
      8365      8360      8373      8375      8365      8360      8373      8376
      8366      8365      8360      8369      8366      8365      8360      8373
      8367      8365      8360      8369      8367      8365      8360      8373
      8368      8365      8360      8369      8368      8365      8360      8373
      8369      8360      8373      8374      8369      8360      8373      8375
      8369      8360      8373      8376      8370      8369      8360      8373
      8371      8369      8360      8373      8372      8369      8360      8373
      8373      8376      8382      8379      8374      8373      8376      8377
      8374      8373      8376      8378      8374      8373      8376      8382
      8375      8373      8376      8377      8375      8373      8376      8378
      8375      8373      8376      8382      8376      8382      8379      8380
      8376      8382      8379      8381      8376      8382      8379      8383
      8377      8376      8382      8379      8378      8376      8382      8379
      8379      8383      8384      8385      8379      8383      8384      8386
      8379      8383      8384      8387      8380      8379      8383      8384
      8381      8379      8383      8384      8382      8379      8383      8384
      8383      8384      8387      8388      8383      8384      8387      8389
      8383      8384      8387      8395      8384      8387      8389      8390
      8384      8387      8395      8396      8384      8387      8395      8397
      8384      8387      8395      8398      8385      8384      8387      8388
      8385      8384      8387      8389      8385      8384      8387      8395
      8386      8384      8387      8388      8386      8384      8387      8389
      8386      8384      8387      8395      8387      8389      8390      8391
      8387      8389      8390      8392      8387      8395      8398      8399
      8388      8387      8389      8390      8388      8387      8395      8396
      8388      8387      8395      8397      8388      8387      8395      8398
      8389      8387      8395      8396      8389      8387      8395      8397
      8389      8387      8395      8398      8389      8390      8392      8393
      8389      8390      8392      8394      8389      8390      8392      8404
      8390      8389      8387      8395      8390      8392      8404      8405
      8390      8392      8404      8406      8390      8392      8404      8407
      8391      8390      8392      8393      8391      8390      8392      8394
      8391      8390      8392      8404      8392      8404      8407      8408
      8392      8404      8407      8409      8392      8404      8407      8410
      8393      8392      8404      8405      8393      8392      8404      8406
      8393      8392      8404      8407      8394      8392      8404      8405
      8394      8392      8404      8406      8394      8392      8404      8407
      8395      8398      8399      8400      8395      8398      8399      8401
      8396      8395      8398      8399      8397      8395      8398      8399
      8398      8399      8401      8402      8398      8399      8401      8403
      8398      8399      8401      8449      8399      8401      8449      8450
      8399      8401      8449      8451      8399      8401      8449      8452
      8400      8399      8401      8402      8400      8399      8401      8403
      8400      8399      8401      8449      8401      8449      8452      8453
      8401      8449      8452      8454      8401      8449      8452      8455
      8402      8401      8449      8450      8402      8401      8449      8451
      8402      8401      8449      8452      8403      8401      8449      8450
      8403      8401      8449      8451      8403      8401      8449      8452
      8404      8407      8410      8411      8404      8407      8410      8412
      8404      8407      8410      8413      8405      8404      8407      8408
      8405      8404      8407      8409      8405      8404      8407      8410
      8406      8404      8407      8408      8406      8404      8407      8409
      8406      8404      8407      8410      8407      8410      8413      8414
      8407      8410      8413      8415      8407      8410      8413      8416
      8408      8407      8410      8411      8408      8407      8410      8412
      8408      8407      8410      8413      8409      8407      8410      8411
      8409      8407      8410      8412      8409      8407      8410      8413
      8410      8413      8416      8417      8410      8413      8416      8418
      8410      8413      8416      8419      8411      8410      8413      8414
      8411      8410      8413      8415      8411      8410      8413      8416
      8412      8410      8413      8414      8412      8410      8413      8415
      8412      8410      8413      8416      8413      8416      8419      8420
      8413      8416      8419      8421      8413      8416      8419      8422
      8414      8413      8416      8417      8414      8413      8416      8418
      8414      8413      8416      8419      8415      8413      8416      8417
      8415      8413      8416      8418      8415      8413      8416      8419
      8416      8419      8422      8423      8416      8419      8422      8424
      8417      8416      8419      8420      8417      8416      8419      8421
      8417      8416      8419      8422      8418      8416      8419      8420
      8418      8416      8419      8421      8418      8416      8419      8422
      8419      8422      8424      8425      8419      8422      8424      8426
      8420      8419      8422      8423      8420      8419      8422      8424
      8421      8419      8422      8423      8421      8419      8422      8424
      8422      8424      8426      8427      8422      8424      8426      8428
      8422      8424      8426      8429      8423      8422      8424      8425
      8423      8422      8424      8426      8424      8426      8429      8430
      8424      8426      8429      8431      8425      8424      8426      8427
      8425      8424      8426      8428      8425      8424      8426      8429
      8426      8429      8431      8432      8426      8429      8431      8433
      8427      8426      8429      8430      8427      8426      8429      8431
      8428      8426      8429      8430      8428      8426      8429      8431
      8429      8431      8433      8434      8429      8431      8433      8435
      8429      8431      8433      8436      8430      8429      8431      8432
      8430      8429      8431      8433      8431      8433      8436      8437
      8431      8433      8436      8438      8431      8433      8436      8439
      8432      8431      8433      8434      8432      8431      8433      8435
      8432      8431      8433      8436      8433      8436      8439      8440
      8433      8436      8439      8441      8433      8436      8439      8442
      8434      8433      8436      8437      8434      8433      8436      8438
      8434      8433      8436      8439      8435      8433      8436      8437
      8435      8433      8436      8438      8435      8433      8436      8439
      8436      8439      8442      8443      8436      8439      8442      8444
      8436      8439      8442      8445      8437      8436      8439      8440
      8437      8436      8439      8441      8437      8436      8439      8442
      8438      8436      8439      8440      8438      8436      8439      8441
      8438      8436      8439      8442      8439      8442      8445      8446
      8439      8442      8445      8447      8439      8442      8445      8448
      8440      8439      8442      8443      8440      8439      8442      8444
      8440      8439      8442      8445      8441      8439      8442      8443
      8441      8439      8442      8444      8441      8439      8442      8445
      8443      8442      8445      8446      8443      8442      8445      8447
      8443      8442      8445      8448      8444      8442      8445      8446
      8444      8442      8445      8447      8444      8442      8445      8448
      8449      8452      8455      8456      8449      8452      8455      8457
      8449      8452      8455      8458      8450      8449      8452      8453
      8450      8449      8452      8454      8450      8449      8452      8455
      8451      8449      8452      8453      8451      8449      8452      8454
      8451      8449      8452      8455      8452      8455      8458      8459
      8452      8455      8458      8460      8452      8455      8458      8461
      8453      8452      8455      8456      8453      8452      8455      8457
      8453      8452      8455      8458      8454      8452      8455      8456
      8454      8452      8455      8457      8454      8452      8455      8458
      8455      8458      8461      8462      8455      8458      8461      8463
      8455      8458      8461      8464      8456      8455      8458      8459
      8456      8455      8458      8460      8456      8455      8458      8461
      8457      8455      8458      8459      8457      8455      8458      8460
      8457      8455      8458      8461      8458      8461      8464      8465
      8458      8461      8464      8466      8458      8461      8464      8467
      8459      8458      8461      8462      8459      8458      8461      8463
      8459      8458      8461      8464      8460      8458      8461      8462
      8460      8458      8461      8463      8460      8458      8461      8464
      8461      8464      8467      8468      8461      8464      8467      8469
      8461      8464      8467      8470      8462      8461      8464      8465
      8462      8461      8464      8466      8462      8461      8464      8467
      8463      8461      8464      8465      8463      8461      8464      8466
      8463      8461      8464      8467      8464      8467      8470      8471
      8464      8467      8470      8472      8464      8467      8470      8473
      8465      8464      8467      8468      8465      8464      8467      8469
      8465      8464      8467      8470      8466      8464      8467      8468
      8466      8464      8467      8469      8466      8464      8467      8470
      8467      8470      8473      8474      8467      8470      8473      8475
      8467      8470      8473      8476      8468      8467      8470      8471
      8468      8467      8470      8472      8468      8467      8470      8473
      8469      8467      8470      8471      8469      8467      8470      8472
      8469      8467      8470      8473      8470      8473      8476      8477
      8470      8473      8476      8478      8470      8473      8476      8479
      8471      8470      8473      8474      8471      8470      8473      8475
      8471      8470      8473      8476      8472      8470      8473      8474
      8472      8470      8473      8475      8472      8470      8473      8476
      8473      8476      8479      8480      8473      8476      8479      8481
      8473      8476      8479      8482      8474      8473      8476      8477
      8474      8473      8476      8478      8474      8473      8476      8479
      8475      8473      8476      8477      8475      8473      8476      8478
      8475      8473      8476      8479      8476      8479      8482      8483
      8476      8479      8482      8484      8476      8479      8482      8485
      8477      8476      8479      8480      8477      8476      8479      8481
      8477      8476      8479      8482      8478      8476      8479      8480
      8478      8476      8479      8481      8478      8476      8479      8482
      8479      8482      8485      8486      8479      8482      8485      8487
      8479      8482      8485      8488      8480      8479      8482      8483
      8480      8479      8482      8484      8480      8479      8482      8485
      8481      8479      8482      8483      8481      8479      8482      8484
      8481      8479      8482      8485      8482      8485      8488      8489
      8482      8485      8488      8490      8482      8485      8488      8491
      8483      8482      8485      8486      8483      8482      8485      8487
      8483      8482      8485      8488      8484      8482      8485      8486
      8484      8482      8485      8487      8484      8482      8485      8488
      8485      8488      8491      8492      8485      8488      8491      8493
      8485      8488      8491      8494      8486      8485      8488      8489
      8486      8485      8488      8490      8486      8485      8488      8491
      8487      8485      8488      8489      8487      8485      8488      8490
      8487      8485      8488      8491      8488      8491      8494      8495
      8488      8491      8494      8496      8488      8491      8494      8497
      8489      8488      8491      8492      8489      8488      8491      8493
      8489      8488      8491      8494      8490      8488      8491      8492
      8490      8488      8491      8493      8490      8488      8491      8494
      8492      8491      8494      8495      8492      8491      8494      8496
      8492      8491      8494      8497      8493      8491      8494      8495
      8493      8491      8494      8496      8493      8491      8494      8497
      8498      8502      8504      8505      8498      8502      8504      8506
      8498      8502      8507      8508      8498      8502      8507      8509
      8498      8502      8507      8513      8499      8498      8502      8503
      8499      8498      8502      8504      8499      8498      8502      8507
      8500      8498      8502      8503      8500      8498      8502      8504
      8500      8498      8502      8507      8501      8498      8502      8503
      8501      8498      8502      8504      8501      8498      8502      8507
      8502      8507      8513      8510      8503      8502      8504      8505
      8503      8502      8504      8506      8503      8502      8507      8508
      8503      8502      8507      8509      8503      8502      8507      8513
      8504      8502      8507      8508      8504      8502      8507      8509
      8504      8502      8507      8513      8505      8504      8502      8507
      8506      8504      8502      8507      8507      8513      8510      8511
      8507      8513      8510      8512      8507      8513      8510      8514
      8508      8507      8513      8510      8509      8507      8513      8510
      8510      8514      8515      8516      8510      8514      8515      8517
      8510      8514      8515      8518      8511      8510      8514      8515
      8512      8510      8514      8515      8513      8510      8514      8515
      8514      8515      8518      8519      8514      8515      8518      8520
      8514      8515      8518      8526      8515      8518      8520      8521
      8515      8518      8526      8527      8515      8518      8526      8528
      8515      8518      8526      8529      8516      8515      8518      8519
      8516      8515      8518      8520      8516      8515      8518      8526
      8517      8515      8518      8519      8517      8515      8518      8520
      8517      8515      8518      8526      8518      8520      8521      8522
      8518      8520      8521      8523      8518      8526      8529      8530
      8519      8518      8520      8521      8519      8518      8526      8527
      8519      8518      8526      8528      8519      8518      8526      8529
      8520      8518      8526      8527      8520      8518      8526      8528
      8520      8518      8526      8529      8520      8521      8523      8524
      8520      8521      8523      8525      8520      8521      8523      8535
      8521      8520      8518      8526      8521      8523      8535      8536
      8521      8523      8535      8537      8521      8523      8535      8538
      8522      8521      8523      8524      8522      8521      8523      8525
      8522      8521      8523      8535      8523      8535      8538      8539
      8523      8535      8538      8540      8523      8535      8538      8541
      8524      8523      8535      8536      8524      8523      8535      8537
      8524      8523      8535      8538      8525      8523      8535      8536
      8525      8523      8535      8537      8525      8523      8535      8538
      8526      8529      8530      8531      8526      8529      8530      8532
      8527      8526      8529      8530      8528      8526      8529      8530
      8529      8530      8532      8533      8529      8530      8532      8534
      8529      8530      8532      8582      8530      8532      8582      8583
      8530      8532      8582      8584      8530      8532      8582      8585
      8531      8530      8532      8533      8531      8530      8532      8534
      8531      8530      8532      8582      8532      8582      8585      8586
      8532      8582      8585      8587      8532      8582      8585      8588
      8533      8532      8582      8583      8533      8532      8582      8584
      8533      8532      8582      8585      8534      8532      8582      8583
      8534      8532      8582      8584      8534      8532      8582      8585
      8535      8538      8541      8542      8535      8538      8541      8543
      8536      8535      8538      8539      8536      8535      8538      8540
      8536      8535      8538      8541      8537      8535      8538      8539
      8537      8535      8538      8540      8537      8535      8538      8541
      8538      8541      8543      8544      8538      8541      8543      8545
      8539      8538      8541      8542      8539      8538      8541      8543
      8540      8538      8541      8542      8540      8538      8541      8543
      8541      8543      8545      8546      8541      8543      8545      8547
      8541      8543      8545      8548      8542      8541      8543      8544
      8542      8541      8543      8545      8543      8545      8548      8549
      8543      8545      8548      8550      8544      8543      8545      8546
      8544      8543      8545      8547      8544      8543      8545      8548
      8545      8548      8550      8551      8545      8548      8550      8552
      8546      8545      8548      8549      8546      8545      8548      8550
      8547      8545      8548      8549      8547      8545      8548      8550
      8548      8550      8552      8553      8548      8550      8552      8554
      8548      8550      8552      8555      8549      8548      8550      8551
      8549      8548      8550      8552      8550      8552      8555      8556
      8550      8552      8555      8557      8551      8550      8552      8553
      8551      8550      8552      8554      8551      8550      8552      8555
      8552      8555      8557      8558      8552      8555      8557      8559
      8553      8552      8555      8556      8553      8552      8555      8557
      8554      8552      8555      8556      8554      8552      8555      8557
      8555      8557      8559      8560      8555      8557      8559      8561
      8555      8557      8559      8562      8556      8555      8557      8558
      8556      8555      8557      8559      8557      8559      8562      8563
      8557      8559      8562      8564      8558      8557      8559      8560
      8558      8557      8559      8561      8558      8557      8559      8562
      8559      8562      8564      8565      8559      8562      8564      8566
      8560      8559      8562      8563      8560      8559      8562      8564
      8561      8559      8562      8563      8561      8559      8562      8564
      8562      8564      8566      8567      8562      8564      8566      8568
      8562      8564      8566      8569      8563      8562      8564      8565
      8563      8562      8564      8566      8564      8566      8569      8570
      8564      8566      8569      8571      8564      8566      8569      8572
      8565      8564      8566      8567      8565      8564      8566      8568
      8565      8564      8566      8569      8566      8569      8572      8573
      8566      8569      8572      8574      8566      8569      8572      8575
      8567      8566      8569      8570      8567      8566      8569      8571
      8567      8566      8569      8572      8568      8566      8569      8570
      8568      8566      8569      8571      8568      8566      8569      8572
      8569      8572      8575      8576      8569      8572      8575      8577
      8569      8572      8575      8578      8570      8569      8572      8573
      8570      8569      8572      8574      8570      8569      8572      8575
      8571      8569      8572      8573      8571      8569      8572      8574
      8571      8569      8572      8575      8572      8575      8578      8579
      8572      8575      8578      8580      8572      8575      8578      8581
      8573      8572      8575      8576      8573      8572      8575      8577
      8573      8572      8575      8578      8574      8572      8575      8576
      8574      8572      8575      8577      8574      8572      8575      8578
      8576      8575      8578      8579      8576      8575      8578      8580
      8576      8575      8578      8581      8577      8575      8578      8579
      8577      8575      8578      8580      8577      8575      8578      8581
      8582      8585      8588      8589      8582      8585      8588      8590
      8582      8585      8588      8591      8583      8582      8585      8586
      8583      8582      8585      8587      8583      8582      8585      8588
      8584      8582      8585      8586      8584      8582      8585      8587
      8584      8582      8585      8588      8585      8588      8591      8592
      8585      8588      8591      8593      8585      8588      8591      8594
      8586      8585      8588      8589      8586      8585      8588      8590
      8586      8585      8588      8591      8587      8585      8588      8589
      8587      8585      8588      8590      8587      8585      8588      8591
      8588      8591      8594      8595      8588      8591      8594      8596
      8588      8591      8594      8597      8589      8588      8591      8592
      8589      8588      8591      8593      8589      8588      8591      8594
      8590      8588      8591      8592      8590      8588      8591      8593
      8590      8588      8591      8594      8591      8594      8597      8598
      8591      8594      8597      8599      8591      8594      8597      8600
      8592      8591      8594      8595      8592      8591      8594      8596
      8592      8591      8594      8597      8593      8591      8594      8595
      8593      8591      8594      8596      8593      8591      8594      8597
      8594      8597      8600      8601      8594      8597      8600      8602
      8594      8597      8600      8603      8595      8594      8597      8598
      8595      8594      8597      8599      8595      8594      8597      8600
      8596      8594      8597      8598      8596      8594      8597      8599
      8596      8594      8597      8600      8597      8600      8603      8604
      8597      8600      8603      8605      8597      8600      8603      8606
      8598      8597      8600      8601      8598      8597      8600      8602
      8598      8597      8600      8603      8599      8597      8600      8601
      8599      8597      8600      8602      8599      8597      8600      8603
      8600      8603      8606      8607      8600      8603      8606      8608
      8600      8603      8606      8609      8601      8600      8603      8604
      8601      8600      8603      8605      8601      8600      8603      8606
      8602      8600      8603      8604      8602      8600      8603      8605
      8602      8600      8603      8606      8603      8606      8609      8610
      8603      8606      8609      8611      8603      8606      8609      8612
      8604      8603      8606      8607      8604      8603      8606      8608
      8604      8603      8606      8609      8605      8603      8606      8607
      8605      8603      8606      8608      8605      8603      8606      8609
      8606      8609      8612      8613      8606      8609      8612      8614
      8606      8609      8612      8615      8607      8606      8609      8610
      8607      8606      8609      8611      8607      8606      8609      8612
      8608      8606      8609      8610      8608      8606      8609      8611
      8608      8606      8609      8612      8609      8612      8615      8616
      8609      8612      8615      8617      8609      8612      8615      8618
      8610      8609      8612      8613      8610      8609      8612      8614
      8610      8609      8612      8615      8611      8609      8612      8613
      8611      8609      8612      8614      8611      8609      8612      8615
      8612      8615      8618      8619      8612      8615      8618      8620
      8612      8615      8618      8621      8613      8612      8615      8616
      8613      8612      8615      8617      8613      8612      8615      8618
      8614      8612      8615      8616      8614      8612      8615      8617
      8614      8612      8615      8618      8615      8618      8621      8622
      8615      8618      8621      8623      8615      8618      8621      8624
      8616      8615      8618      8619      8616      8615      8618      8620
      8616      8615      8618      8621      8617      8615      8618      8619
      8617      8615      8618      8620      8617      8615      8618      8621
      8618      8621      8624      8625      8618      8621      8624      8626
      8618      8621      8624      8627      8619      8618      8621      8622
      8619      8618      8621      8623      8619      8618      8621      8624
      8620      8618      8621      8622      8620      8618      8621      8623
      8620      8618      8621      8624      8621      8624      8627      8628
      8621      8624      8627      8629      8621      8624      8627      8630
      8622      8621      8624      8625      8622      8621      8624      8626
      8622      8621      8624      8627      8623      8621      8624      8625
      8623      8621      8624      8626      8623      8621      8624      8627
      8625      8624      8627      8628      8625      8624      8627      8629
      8625      8624      8627      8630      8626      8624      8627      8628
      8626      8624      8627      8629      8626      8624      8627      8630
      8631      8635      8637      8638      8631      8635      8637      8639
      8631      8635      8640      8641      8631      8635      8640      8642
      8631      8635      8640      8646      8632      8631      8635      8636
      8632      8631      8635      8637      8632      8631      8635      8640
      8633      8631      8635      8636      8633      8631      8635      8637
      8633      8631      8635      8640      8634      8631      8635      8636
      8634      8631      8635      8637      8634      8631      8635      8640
      8635      8640      8646      8643      8636      8635      8637      8638
      8636      8635      8637      8639      8636      8635      8640      8641
      8636      8635      8640      8642      8636      8635      8640      8646
      8637      8635      8640      8641      8637      8635      8640      8642
      8637      8635      8640      8646      8638      8637      8635      8640
      8639      8637      8635      8640      8640      8646      8643      8644
      8640      8646      8643      8645      8640      8646      8643      8647
      8641      8640      8646      8643      8642      8640      8646      8643
      8643      8647      8648      8649      8643      8647      8648      8650
      8643      8647      8648      8651      8644      8643      8647      8648
      8645      8643      8647      8648      8646      8643      8647      8648
      8647      8648      8651      8652      8647      8648      8651      8653
      8647      8648      8651      8659      8648      8651      8653      8654
      8648      8651      8659      8660      8648      8651      8659      8661
      8648      8651      8659      8662      8649      8648      8651      8652
      8649      8648      8651      8653      8649      8648      8651      8659
      8650      8648      8651      8652      8650      8648      8651      8653
      8650      8648      8651      8659      8651      8653      8654      8655
      8651      8653      8654      8656      8651      8659      8662      8663
      8652      8651      8653      8654      8652      8651      8659      8660
      8652      8651      8659      8661      8652      8651      8659      8662
      8653      8651      8659      8660      8653      8651      8659      8661
      8653      8651      8659      8662      8653      8654      8656      8657
      8653      8654      8656      8658      8653      8654      8656      8668
      8654      8653      8651      8659      8654      8656      8668      8669
      8654      8656      8668      8670      8654      8656      8668      8671
      8655      8654      8656      8657      8655      8654      8656      8658
      8655      8654      8656      8668      8656      8668      8671      8672
      8656      8668      8671      8673      8656      8668      8671      8674
      8657      8656      8668      8669      8657      8656      8668      8670
      8657      8656      8668      8671      8658      8656      8668      8669
      8658      8656      8668      8670      8658      8656      8668      8671
      8659      8662      8663      8664      8659      8662      8663      8665
      8660      8659      8662      8663      8661      8659      8662      8663
      8662      8663      8665      8666      8662      8663      8665      8667
      8662      8663      8665      8715      8663      8665      8715      8716
      8663      8665      8715      8717      8663      8665      8715      8718
      8664      8663      8665      8666      8664      8663      8665      8667
      8664      8663      8665      8715      8665      8715      8718      8719
      8665      8715      8718      8720      8665      8715      8718      8721
      8666      8665      8715      8716      8666      8665      8715      8717
      8666      8665      8715      8718      8667      8665      8715      8716
      8667      8665      8715      8717      8667      8665      8715      8718
      8668      8671      8674      8675      8668      8671      8674      8676
      8669      8668      8671      8672      8669      8668      8671      8673
      8669      8668      8671      8674      8670      8668      8671      8672
      8670      8668      8671      8673      8670      8668      8671      8674
      8671      8674      8676      8677      8671      8674      8676      8678
      8672      8671      8674      8675      8672      8671      8674      8676
      8673      8671      8674      8675      8673      8671      8674      8676
      8674      8676      8678      8679      8674      8676      8678      8680
      8674      8676      8678      8681      8675      8674      8676      8677
      8675      8674      8676      8678      8676      8678      8681      8682
      8676      8678      8681      8683      8677      8676      8678      8679
      8677      8676      8678      8680      8677      8676      8678      8681
      8678      8681      8683      8684      8678      8681      8683      8685
      8679      8678      8681      8682      8679      8678      8681      8683
      8680      8678      8681      8682      8680      8678      8681      8683
      8681      8683      8685      8686      8681      8683      8685      8687
      8681      8683      8685      8688      8682      8681      8683      8684
      8682      8681      8683      8685      8683      8685      8688      8689
      8683      8685      8688      8690      8684      8683      8685      8686
      8684      8683      8685      8687      8684      8683      8685      8688
      8685      8688      8690      8691      8685      8688      8690      8692
      8686      8685      8688      8689      8686      8685      8688      8690
      8687      8685      8688      8689      8687      8685      8688      8690
      8688      8690      8692      8693      8688      8690      8692      8694
      8688      8690      8692      8695      8689      8688      8690      8691
      8689      8688      8690      8692      8690      8692      8695      8696
      8690      8692      8695      8697      8691      8690      8692      8693
      8691      8690      8692      8694      8691      8690      8692      8695
      8692      8695      8697      8698      8692      8695      8697      8699
      8693      8692      8695      8696      8693      8692      8695      8697
      8694      8692      8695      8696      8694      8692      8695      8697
      8695      8697      8699      8700      8695      8697      8699      8701
      8695      8697      8699      8702      8696      8695      8697      8698
      8696      8695      8697      8699      8697      8699      8702      8703
      8697      8699      8702      8704      8697      8699      8702      8705
      8698      8697      8699      8700      8698      8697      8699      8701
      8698      8697      8699      8702      8699      8702      8705      8706
      8699      8702      8705      8707      8699      8702      8705      8708
      8700      8699      8702      8703      8700      8699      8702      8704
      8700      8699      8702      8705      8701      8699      8702      8703
      8701      8699      8702      8704      8701      8699      8702      8705
      8702      8705      8708      8709      8702      8705      8708      8710
      8702      8705      8708      8711      8703      8702      8705      8706
      8703      8702      8705      8707      8703      8702      8705      8708
      8704      8702      8705      8706      8704      8702      8705      8707
      8704      8702      8705      8708      8705      8708      8711      8712
      8705      8708      8711      8713      8705      8708      8711      8714
      8706      8705      8708      8709      8706      8705      8708      8710
      8706      8705      8708      8711      8707      8705      8708      8709
      8707      8705      8708      8710      8707      8705      8708      8711
      8709      8708      8711      8712      8709      8708      8711      8713
      8709      8708      8711      8714      8710      8708      8711      8712
      8710      8708      8711      8713      8710      8708      8711      8714
      8715      8718      8721      8722      8715      8718      8721      8723
      8715      8718      8721      8724      8716      8715      8718      8719
      8716      8715      8718      8720      8716      8715      8718      8721
      8717      8715      8718      8719      8717      8715      8718      8720
      8717      8715      8718      8721      8718      8721      8724      8725
      8718      8721      8724      8726      8718      8721      8724      8727
      8719      8718      8721      8722      8719      8718      8721      8723
      8719      8718      8721      8724      8720      8718      8721      8722
      8720      8718      8721      8723      8720      8718      8721      8724
      8721      8724      8727      8728      8721      8724      8727      8729
      8721      8724      8727      8730      8722      8721      8724      8725
      8722      8721      8724      8726      8722      8721      8724      8727
      8723      8721      8724      8725      8723      8721      8724      8726
      8723      8721      8724      8727      8724      8727      8730      8731
      8724      8727      8730      8732      8724      8727      8730      8733
      8725      8724      8727      8728      8725      8724      8727      8729
      8725      8724      8727      8730      8726      8724      8727      8728
      8726      8724      8727      8729      8726      8724      8727      8730
      8727      8730      8733      8734      8727      8730      8733      8735
      8727      8730      8733      8736      8728      8727      8730      8731
      8728      8727      8730      8732      8728      8727      8730      8733
      8729      8727      8730      8731      8729      8727      8730      8732
      8729      8727      8730      8733      8730      8733      8736      8737
      8730      8733      8736      8738      8730      8733      8736      8739
      8731      8730      8733      8734      8731      8730      8733      8735
      8731      8730      8733      8736      8732      8730      8733      8734
      8732      8730      8733      8735      8732      8730      8733      8736
      8733      8736      8739      8740      8733      8736      8739      8741
      8733      8736      8739      8742      8734      8733      8736      8737
      8734      8733      8736      8738      8734      8733      8736      8739
      8735      8733      8736      8737      8735      8733      8736      8738
      8735      8733      8736      8739      8736      8739      8742      8743
      8736      8739      8742      8744      8736      8739      8742      8745
      8737      8736      8739      8740      8737      8736      8739      8741
      8737      8736      8739      8742      8738      8736      8739      8740
      8738      8736      8739      8741      8738      8736      8739      8742
      8739      8742      8745      8746      8739      8742      8745      8747
      8739      8742      8745      8748      8740      8739      8742      8743
      8740      8739      8742      8744      8740      8739      8742      8745
      8741      8739      8742      8743      8741      8739      8742      8744
      8741      8739      8742      8745      8742      8745      8748      8749
      8742      8745      8748      8750      8742      8745      8748      8751
      8743      8742      8745      8746      8743      8742      8745      8747
      8743      8742      8745      8748      8744      8742      8745      8746
      8744      8742      8745      8747      8744      8742      8745      8748
      8745      8748      8751      8752      8745      8748      8751      8753
      8745      8748      8751      8754      8746      8745      8748      8749
      8746      8745      8748      8750      8746      8745      8748      8751
      8747      8745      8748      8749      8747      8745      8748      8750
      8747      8745      8748      8751      8748      8751      8754      8755
      8748      8751      8754      8756      8748      8751      8754      8757
      8749      8748      8751      8752      8749      8748      8751      8753
      8749      8748      8751      8754      8750      8748      8751      8752
      8750      8748      8751      8753      8750      8748      8751      8754
      8751      8754      8757      8758      8751      8754      8757      8759
      8751      8754      8757      8760      8752      8751      8754      8755
      8752      8751      8754      8756      8752      8751      8754      8757
      8753      8751      8754      8755      8753      8751      8754      8756
      8753      8751      8754      8757      8754      8757      8760      8761
      8754      8757      8760      8762      8754      8757      8760      8763
      8755      8754      8757      8758      8755      8754      8757      8759
      8755      8754      8757      8760      8756      8754      8757      8758
      8756      8754      8757      8759      8756      8754      8757      8760
      8758      8757      8760      8761      8758      8757      8760      8762
      8758      8757      8760      8763      8759      8757      8760      8761
      8759      8757      8760      8762      8759      8757      8760      8763
      8764      8765      8780      8781      8764      8765      8780      8782
      8764      8765      8780      8786      8765      8764      8768      8769
      8765      8764      8768      8770      8765      8764      8768      8771
      8765      8764      8772      8773      8765      8764      8772      8774
      8765      8764      8772      8775      8765      8764      8776      8777
      8765      8764      8776      8778      8765      8764      8776      8779
      8765      8780      8786      8783      8766      8765      8764      8768
      8766      8765      8764      8772      8766      8765      8764      8776
      8766      8765      8780      8781      8766      8765      8780      8782
      8766      8765      8780      8786      8767      8765      8764      8768
      8767      8765      8764      8772      8767      8765      8764      8776
      8767      8765      8780      8781      8767      8765      8780      8782
      8767      8765      8780      8786      8768      8764      8765      8780
      8768      8764      8772      8773      8768      8764      8772      8774
      8768      8764      8772      8775      8768      8764      8776      8777
      8768      8764      8776      8778      8768      8764      8776      8779
      8769      8768      8764      8772      8769      8768      8764      8776
      8770      8768      8764      8772      8770      8768      8764      8776
      8771      8768      8764      8772      8771      8768      8764      8776
      8772      8764      8765      8780      8772      8764      8776      8777
      8772      8764      8776      8778      8772      8764      8776      8779
      8773      8772      8764      8776      8774      8772      8764      8776
      8775      8772      8764      8776      8776      8764      8765      8780
      8780      8786      8783      8784      8780      8786      8783      8785
      8780      8786      8783      8787      8781      8780      8786      8783
      8782      8780      8786      8783      8783      8787      8788      8789
      8783      8787      8788      8790      8783      8787      8788      8791
      8784      8783      8787      8788      8785      8783      8787      8788
      8786      8783      8787      8788      8787      8788      8791      8792
      8787      8788      8791      8793      8787      8788      8791      8799
      8788      8791      8793      8794      8788      8791      8799      8800
      8788      8791      8799      8801      8788      8791      8799      8802
      8789      8788      8791      8792      8789      8788      8791      8793
      8789      8788      8791      8799      8790      8788      8791      8792
      8790      8788      8791      8793      8790      8788      8791      8799
      8791      8793      8794      8795      8791      8793      8794      8796
      8791      8799      8802      8803      8792      8791      8793      8794
      8792      8791      8799      8800      8792      8791      8799      8801
      8792      8791      8799      8802      8793      8791      8799      8800
      8793      8791      8799      8801      8793      8791      8799      8802
      8793      8794      8796      8797      8793      8794      8796      8798
      8793      8794      8796      8808      8794      8793      8791      8799
      8794      8796      8808      8809      8794      8796      8808      8810
      8794      8796      8808      8811      8795      8794      8796      8797
      8795      8794      8796      8798      8795      8794      8796      8808
      8796      8808      8811      8812      8796      8808      8811      8813
      8796      8808      8811      8814      8797      8796      8808      8809
      8797      8796      8808      8810      8797      8796      8808      8811
      8798      8796      8808      8809      8798      8796      8808      8810
      8798      8796      8808      8811      8799      8802      8803      8804
      8799      8802      8803      8805      8800      8799      8802      8803
      8801      8799      8802      8803      8802      8803      8805      8806
      8802      8803      8805      8807      8802      8803      8805      8855
      8803      8805      8855      8856      8803      8805      8855      8857
      8803      8805      8855      8858      8804      8803      8805      8806
      8804      8803      8805      8807      8804      8803      8805      8855
      8805      8855      8858      8859      8805      8855      8858      8860
      8805      8855      8858      8861      8806      8805      8855      8856
      8806      8805      8855      8857      8806      8805      8855      8858
      8807      8805      8855      8856      8807      8805      8855      8857
      8807      8805      8855      8858      8808      8811      8814      8815
      8808      8811      8814      8816      8808      8811      8814      8817
      8809      8808      8811      8812      8809      8808      8811      8813
      8809      8808      8811      8814      8810      8808      8811      8812
      8810      8808      8811      8813      8810      8808      8811      8814
      8811      8814      8817      8818      8811      8814      8817      8819
      8811      8814      8817      8820      8812      8811      8814      8815
      8812      8811      8814      8816      8812      8811      8814      8817
      8813      8811      8814      8815      8813      8811      8814      8816
      8813      8811      8814      8817      8814      8817      8820      8821
      8814      8817      8820      8822      8814      8817      8820      8823
      8815      8814      8817      8818      8815      8814      8817      8819
      8815      8814      8817      8820      8816      8814      8817      8818
      8816      8814      8817      8819      8816      8814      8817      8820
      8817      8820      8823      8824      8817      8820      8823      8825
      8817      8820      8823      8826      8818      8817      8820      8821
      8818      8817      8820      8822      8818      8817      8820      8823
      8819      8817      8820      8821      8819      8817      8820      8822
      8819      8817      8820      8823      8820      8823      8826      8827
      8820      8823      8826      8828      8821      8820      8823      8824
      8821      8820      8823      8825      8821      8820      8823      8826
      8822      8820      8823      8824      8822      8820      8823      8825
      8822      8820      8823      8826      8823      8826      8828      8829
      8823      8826      8828      8830      8824      8823      8826      8827
      8824      8823      8826      8828      8825      8823      8826      8827
      8825      8823      8826      8828      8826      8828      8830      8831
      8826      8828      8830      8832      8826      8828      8830      8833
      8827      8826      8828      8829      8827      8826      8828      8830
      8828      8830      8833      8834      8828      8830      8833      8835
      8828      8830      8833      8836      8829      8828      8830      8831
      8829      8828      8830      8832      8829      8828      8830      8833
      8830      8833      8836      8837      8830      8833      8836      8838
      8830      8833      8836      8839      8831      8830      8833      8834
      8831      8830      8833      8835      8831      8830      8833      8836
      8832      8830      8833      8834      8832      8830      8833      8835
      8832      8830      8833      8836      8833      8836      8839      8840
      8833      8836      8839      8841      8833      8836      8839      8842
      8834      8833      8836      8837      8834      8833      8836      8838
      8834      8833      8836      8839      8835      8833      8836      8837
      8835      8833      8836      8838      8835      8833      8836      8839
      8836      8839      8842      8843      8836      8839      8842      8844
      8836      8839      8842      8845      8837      8836      8839      8840
      8837      8836      8839      8841      8837      8836      8839      8842
      8838      8836      8839      8840      8838      8836      8839      8841
      8838      8836      8839      8842      8839      8842      8845      8846
      8839      8842      8845      8847      8839      8842      8845      8848
      8840      8839      8842      8843      8840      8839      8842      8844
      8840      8839      8842      8845      8841      8839      8842      8843
      8841      8839      8842      8844      8841      8839      8842      8845
      8842      8845      8848      8849      8842      8845      8848      8850
      8842      8845      8848      8851      8843      8842      8845      8846
      8843      8842      8845      8847      8843      8842      8845      8848
      8844      8842      8845      8846      8844      8842      8845      8847
      8844      8842      8845      8848      8845      8848      8851      8852
      8845      8848      8851      8853      8845      8848      8851      8854
      8846      8845      8848      8849      8846      8845      8848      8850
      8846      8845      8848      8851      8847      8845      8848      8849
      8847      8845      8848      8850      8847      8845      8848      8851
      8849      8848      8851      8852      8849      8848      8851      8853
      8849      8848      8851      8854      8850      8848      8851      8852
      8850      8848      8851      8853      8850      8848      8851      8854
      8855      8858      8861      8862      8855      8858      8861      8863
      8855      8858      8861      8864      8856      8855      8858      8859
      8856      8855      8858      8860      8856      8855      8858      8861
      8857      8855      8858      8859      8857      8855      8858      8860
      8857      8855      8858      8861      8858      8861      8864      8865
      8858      8861      8864      8866      8858      8861      8864      8867
      8859      8858      8861      8862      8859      8858      8861      8863
      8859      8858      8861      8864      8860      8858      8861      8862
      8860      8858      8861      8863      8860      8858      8861      8864
      8861      8864      8867      8868      8861      8864      8867      8869
      8861      8864      8867      8870      8862      8861      8864      8865
      8862      8861      8864      8866      8862      8861      8864      8867
      8863      8861      8864      8865      8863      8861      8864      8866
      8863      8861      8864      8867      8864      8867      8870      8871
      8864      8867      8870      8872      8864      8867      8870      8873
      8865      8864      8867      8868      8865      8864      8867      8869
      8865      8864      8867      8870      8866      8864      8867      8868
      8866      8864      8867      8869      8866      8864      8867      8870
      8867      8870      8873      8874      8867      8870      8873      8875
      8867      8870      8873      8876      8868      8867      8870      8871
      8868      8867      8870      8872      8868      8867      8870      8873
      8869      8867      8870      8871      8869      8867      8870      8872
      8869      8867      8870      8873      8870      8873      8876      8877
      8870      8873      8876      8878      8870      8873      8876      8879
      8871      8870      8873      8874      8871      8870      8873      8875
      8871      8870      8873      8876      8872      8870      8873      8874
      8872      8870      8873      8875      8872      8870      8873      8876
      8873      8876      8879      8880      8873      8876      8879      8881
      8873      8876      8879      8882      8874      8873      8876      8877
      8874      8873      8876      8878      8874      8873      8876      8879
      8875      8873      8876      8877      8875      8873      8876      8878
      8875      8873      8876      8879      8876      8879      8882      8883
      8876      8879      8882      8884      8876      8879      8882      8885
      8877      8876      8879      8880      8877      8876      8879      8881
      8877      8876      8879      8882      8878      8876      8879      8880
      8878      8876      8879      8881      8878      8876      8879      8882
      8879      8882      8885      8886      8879      8882      8885      8887
      8879      8882      8885      8888      8880      8879      8882      8883
      8880      8879      8882      8884      8880      8879      8882      8885
      8881      8879      8882      8883      8881      8879      8882      8884
      8881      8879      8882      8885      8882      8885      8888      8889
      8882      8885      8888      8890      8882      8885      8888      8891
      8883      8882      8885      8886      8883      8882      8885      8887
      8883      8882      8885      8888      8884      8882      8885      8886
      8884      8882      8885      8887      8884      8882      8885      8888
      8885      8888      8891      8892      8885      8888      8891      8893
      8885      8888      8891      8894      8886      8885      8888      8889
      8886      8885      8888      8890      8886      8885      8888      8891
      8887      8885      8888      8889      8887      8885      8888      8890
      8887      8885      8888      8891      8888      8891      8894      8895
      8888      8891      8894      8896      8888      8891      8894      8897
      8889      8888      8891      8892      8889      8888      8891      8893
      8889      8888      8891      8894      8890      8888      8891      8892
      8890      8888      8891      8893      8890      8888      8891      8894
      8892      8891      8894      8895      8892      8891      8894      8896
      8892      8891      8894      8897      8893      8891      8894      8895
      8893      8891      8894      8896      8893      8891      8894      8897
      8898      8911      8914      8915      8898      8911      8914      8916
      8898      8911      8914      8921      8899      8898      8903      8904
      8899      8898      8903      8905      8899      8898      8903      8906
      8899      8898      8907      8908      8899      8898      8907      8909
      8899      8898      8907      8910      8899      8898      8911      8912
      8899      8898      8911      8913      8899      8898      8911      8914
      8900      8899      8898      8903      8900      8899      8898      8907
      8900      8899      8898      8911      8901      8899      8898      8903
      8901      8899      8898      8907      8901      8899      8898      8911
      8902      8899      8898      8903      8902      8899      8898      8907
      8902      8899      8898      8911      8903      8898      8907      8908
      8903      8898      8907      8909      8903      8898      8907      8910
      8903      8898      8911      8912      8903      8898      8911      8913
      8903      8898      8911      8914      8904      8903      8898      8907
      8904      8903      8898      8911      8905      8903      8898      8907
      8905      8903      8898      8911      8906      8903      8898      8907
      8906      8903      8898      8911      8907      8898      8911      8912
      8907      8898      8911      8913      8907      8898      8911      8914
      8908      8907      8898      8911      8909      8907      8898      8911
      8910      8907      8898      8911      8911      8914      8921      8917
      8912      8911      8914      8915      8912      8911      8914      8916
      8912      8911      8914      8921      8913      8911      8914      8915
      8913      8911      8914      8916      8913      8911      8914      8921
      8914      8921      8917      8918      8914      8921      8917      8919
      8914      8921      8917      8920      8915      8914      8921      8917
      8916      8914      8921      8917      8917      8920      8922      8923
      8917      8920      8922      8924      8917      8920      8922      8927
      8918      8917      8920      8922      8919      8917      8920      8922
      8920      8922      8927      8925      8920      8922      8927      8928
      8920      8922      8927      8929      8921      8917      8920      8922
      8922      8927      8925      8926      8922      8927      8925      8977
      8922      8927      8929      8930      8922      8927      8929      8931
      8922      8927      8929      8933      8923      8922      8927      8925
      8923      8922      8927      8928      8923      8922      8927      8929
      8924      8922      8927      8925      8924      8922      8927      8928
      8924      8922      8927      8929      8925      8927      8929      8930
      8925      8927      8929      8931      8925      8927      8929      8933
      8925      8977      8979      8980      8925      8977      8979      8981
      8925      8977      8979      8982      8926      8925      8927      8928
      8926      8925      8927      8929      8926      8925      8977      8978
      8926      8925      8977      8979      8927      8925      8977      8978
      8927      8925      8977      8979      8927      8929      8931      8932
      8927      8929      8933      8934      8927      8929      8933      8935
      8928      8927      8925      8977      8928      8927      8929      8930
      8928      8927      8929      8931      8928      8927      8929      8933
      8929      8927      8925      8977      8929      8933      8935      8936
      8929      8933      8935      8937      8930      8929      8931      8932
      8930      8929      8933      8934      8930      8929      8933      8935
      8931      8929      8933      8934      8931      8929      8933      8935
      8932      8931      8929      8933      8933      8935      8937      8938
      8933      8935      8937      8939      8933      8935      8937      8940
      8934      8933      8935      8936      8934      8933      8935      8937
      8935      8937      8940      8941      8935      8937      8940      8942
      8935      8937      8940      8943      8936      8935      8937      8938
      8936      8935      8937      8939      8936      8935      8937      8940
      8937      8940      8943      8944      8937      8940      8943      8945
      8937      8940      8943      8946      8938      8937      8940      8941
      8938      8937      8940      8942      8938      8937      8940      8943
      8939      8937      8940      8941      8939      8937      8940      8942
      8939      8937      8940      8943      8940      8943      8946      8947
      8940      8943      8946      8948      8940      8943      8946      8949
      8941      8940      8943      8944      8941      8940      8943      8945
      8941      8940      8943      8946      8942      8940      8943      8944
      8942      8940      8943      8945      8942      8940      8943      8946
      8943      8946      8949      8950      8943      8946      8949      8951
      8943      8946      8949      8952      8944      8943      8946      8947
      8944      8943      8946      8948      8944      8943      8946      8949
      8945      8943      8946      8947      8945      8943      8946      8948
      8945      8943      8946      8949      8946      8949      8952      8953
      8946      8949      8952      8954      8946      8949      8952      8955
      8947      8946      8949      8950      8947      8946      8949      8951
      8947      8946      8949      8952      8948      8946      8949      8950
      8948      8946      8949      8951      8948      8946      8949      8952
      8949      8952      8955      8956      8949      8952      8955      8957
      8949      8952      8955      8958      8950      8949      8952      8953
      8950      8949      8952      8954      8950      8949      8952      8955
      8951      8949      8952      8953      8951      8949      8952      8954
      8951      8949      8952      8955      8952      8955      8958      8959
      8952      8955      8958      8960      8952      8955      8958      8961
      8953      8952      8955      8956      8953      8952      8955      8957
      8953      8952      8955      8958      8954      8952      8955      8956
      8954      8952      8955      8957      8954      8952      8955      8958
      8955      8958      8961      8962      8955      8958      8961      8963
      8955      8958      8961      8964      8956      8955      8958      8959
      8956      8955      8958      8960      8956      8955      8958      8961
      8957      8955      8958      8959      8957      8955      8958      8960
      8957      8955      8958      8961      8958      8961      8964      8965
      8958      8961      8964      8966      8958      8961      8964      8967
      8959      8958      8961      8962      8959      8958      8961      8963
      8959      8958      8961      8964      8960      8958      8961      8962
      8960      8958      8961      8963      8960      8958      8961      8964
      8961      8964      8967      8968      8961      8964      8967      8969
      8961      8964      8967      8970      8962      8961      8964      8965
      8962      8961      8964      8966      8962      8961      8964      8967
      8963      8961      8964      8965      8963      8961      8964      8966
      8963      8961      8964      8967      8964      8967      8970      8971
      8964      8967      8970      8972      8964      8967      8970      8973
      8965      8964      8967      8968      8965      8964      8967      8969
      8965      8964      8967      8970      8966      8964      8967      8968
      8966      8964      8967      8969      8966      8964      8967      8970
      8967      8970      8973      8974      8967      8970      8973      8975
      8967      8970      8973      8976      8968      8967      8970      8971
      8968      8967      8970      8972      8968      8967      8970      8973
      8969      8967      8970      8971      8969      8967      8970      8972
      8969      8967      8970      8973      8971      8970      8973      8974
      8971      8970      8973      8975      8971      8970      8973      8976
      8972      8970      8973      8974      8972      8970      8973      8975
      8972      8970      8973      8976      8977      8979      8982      8983
      8977      8979      8982      8984      8977      8979      8982      8985
      8978      8977      8979      8980      8978      8977      8979      8981
      8978      8977      8979      8982      8979      8982      8985      8986
      8979      8982      8985      8987      8979      8982      8985      8988
      8980      8979      8982      8983      8980      8979      8982      8984
      8980      8979      8982      8985      8981      8979      8982      8983
      8981      8979      8982      8984      8981      8979      8982      8985
      8982      8985      8988      8989      8982      8985      8988      8990
      8982      8985      8988      8991      8983      8982      8985      8986
      8983      8982      8985      8987      8983      8982      8985      8988
      8984      8982      8985      8986      8984      8982      8985      8987
      8984      8982      8985      8988      8985      8988      8991      8992
      8985      8988      8991      8993      8985      8988      8991      8994
      8986      8985      8988      8989      8986      8985      8988      8990
      8986      8985      8988      8991      8987      8985      8988      8989
      8987      8985      8988      8990      8987      8985      8988      8991
      8988      8991      8994      8995      8988      8991      8994      8996
      8988      8991      8994      8997      8989      8988      8991      8992
      8989      8988      8991      8993      8989      8988      8991      8994
      8990      8988      8991      8992      8990      8988      8991      8993
      8990      8988      8991      8994      8991      8994      8997      8998
      8991      8994      8997      8999      8991      8994      8997      9000
      8992      8991      8994      8995      8992      8991      8994      8996
      8992      8991      8994      8997      8993      8991      8994      8995
      8993      8991      8994      8996      8993      8991      8994      8997
      8994      8997      9000      9001      8994      8997      9000      9002
      8995      8994      8997      8998      8995      8994      8997      8999
      8995      8994      8997      9000      8996      8994      8997      8998
      8996      8994      8997      8999      8996      8994      8997      9000
      8997      9000      9002      9003      8997      9000      9002      9004
      8998      8997      9000      9001      8998      8997      9000      9002
      8999      8997      9000      9001      8999      8997      9000      9002
      9000      9002      9004      9005      9000      9002      9004      9006
      9000      9002      9004      9007      9001      9000      9002      9003
      9001      9000      9002      9004      9002      9004      9007      9008
      9002      9004      9007      9009      9002      9004      9007      9010
      9003      9002      9004      9005      9003      9002      9004      9006
      9003      9002      9004      9007      9004      9007      9010      9011
      9004      9007      9010      9012      9004      9007      9010      9013
      9005      9004      9007      9008      9005      9004      9007      9009
      9005      9004      9007      9010      9006      9004      9007      9008
      9006      9004      9007      9009      9006      9004      9007      9010
      9007      9010      9013      9014      9007      9010      9013      9015
      9007      9010      9013      9016      9008      9007      9010      9011
      9008      9007      9010      9012      9008      9007      9010      9013
      9009      9007      9010      9011      9009      9007      9010      9012
      9009      9007      9010      9013      9010      9013      9016      9017
      9010      9013      9016      9018      9010      9013      9016      9019
      9011      9010      9013      9014      9011      9010      9013      9015
      9011      9010      9013      9016      9012      9010      9013      9014
      9012      9010      9013      9015      9012      9010      9013      9016
      9013      9016      9019      9020      9013      9016      9019      9021
      9013      9016      9019      9022      9014      9013      9016      9017
      9014      9013      9016      9018      9014      9013      9016      9019
      9015      9013      9016      9017      9015      9013      9016      9018
      9015      9013      9016      9019      9016      9019      9022      9023
      9016      9019      9022      9024      9016      9019      9022      9025
      9017      9016      9019      9020      9017      9016      9019      9021
      9017      9016      9019      9022      9018      9016      9019      9020
      9018      9016      9019      9021      9018      9016      9019      9022
      9019      9022      9025      9026      9019      9022      9025      9027
      9019      9022      9025      9028      9020      9019      9022      9023
      9020      9019      9022      9024      9020      9019      9022      9025
      9021      9019      9022      9023      9021      9019      9022      9024
      9021      9019      9022      9025      9023      9022      9025      9026
      9023      9022      9025      9027      9023      9022      9025      9028
      9024      9022      9025      9026      9024      9022      9025      9027
      9024      9022      9025      9028      9029      9033      9036      9037
      9029      9033      9036      9038      9029      9033      9036      9042
      9030      9029      9033      9034      9030      9029      9033      9035
      9030      9029      9033      9036      9031      9029      9033      9034
      9031      9029      9033      9035      9031      9029      9033      9036
      9032      9029      9033      9034      9032      9029      9033      9035
      9032      9029      9033      9036      9033      9036      9042      9039
      9034      9033      9036      9037      9034      9033      9036      9038
      9034      9033      9036      9042      9035      9033      9036      9037
      9035      9033      9036      9038      9035      9033      9036      9042
      9036      9042      9039      9040      9036      9042      9039      9041
      9036      9042      9039      9043      9037      9036      9042      9039
      9038      9036      9042      9039      9039      9043      9044      9045
      9039      9043      9044      9046      9039      9043      9044      9047
      9040      9039      9043      9044      9041      9039      9043      9044
      9042      9039      9043      9044      9043      9044      9047      9048
      9043      9044      9047      9049      9043      9044      9047      9055
      9044      9047      9049      9050      9044      9047      9055      9056
      9044      9047      9055      9057      9044      9047      9055      9058
      9045      9044      9047      9048      9045      9044      9047      9049
      9045      9044      9047      9055      9046      9044      9047      9048
      9046      9044      9047      9049      9046      9044      9047      9055
      9047      9049      9050      9051      9047      9049      9050      9052
      9047      9055      9058      9059      9048      9047      9049      9050
      9048      9047      9055      9056      9048      9047      9055      9057
      9048      9047      9055      9058      9049      9047      9055      9056
      9049      9047      9055      9057      9049      9047      9055      9058
      9049      9050      9052      9053      9049      9050      9052      9054
      9049      9050      9052      9064      9050      9049      9047      9055
      9050      9052      9064      9065      9050      9052      9064      9066
      9050      9052      9064      9067      9051      9050      9052      9053
      9051      9050      9052      9054      9051      9050      9052      9064
      9052      9064      9067      9068      9052      9064      9067      9069
      9052      9064      9067      9070      9053      9052      9064      9065
      9053      9052      9064      9066      9053      9052      9064      9067
      9054      9052      9064      9065      9054      9052      9064      9066
      9054      9052      9064      9067      9055      9058      9059      9060
      9055      9058      9059      9061      9056      9055      9058      9059
      9057      9055      9058      9059      9058      9059      9061      9062
      9058      9059      9061      9063      9058      9059      9061      9111
      9059      9061      9111      9112      9059      9061      9111      9113
      9059      9061      9111      9114      9060      9059      9061      9062
      9060      9059      9061      9063      9060      9059      9061      9111
      9061      9111      9114      9115      9061      9111      9114      9116
      9061      9111      9114      9117      9062      9061      9111      9112
      9062      9061      9111      9113      9062      9061      9111      9114
      9063      9061      9111      9112      9063      9061      9111      9113
      9063      9061      9111      9114      9064      9067      9070      9071
      9064      9067      9070      9072      9065      9064      9067      9068
      9065      9064      9067      9069      9065      9064      9067      9070
      9066      9064      9067      9068      9066      9064      9067      9069
      9066      9064      9067      9070      9067      9070      9072      9073
      9067      9070      9072      9074      9068      9067      9070      9071
      9068      9067      9070      9072      9069      9067      9070      9071
      9069      9067      9070      9072      9070      9072      9074      9075
      9070      9072      9074      9076      9070      9072      9074      9077
      9071      9070      9072      9073      9071      9070      9072      9074
      9072      9074      9077      9078      9072      9074      9077      9079
      9073      9072      9074      9075      9073      9072      9074      9076
      9073      9072      9074      9077      9074      9077      9079      9080
      9074      9077      9079      9081      9075      9074      9077      9078
      9075      9074      9077      9079      9076      9074      9077      9078
      9076      9074      9077      9079      9077      9079      9081      9082
      9077      9079      9081      9083      9077      9079      9081      9084
      9078      9077      9079      9080      9078      9077      9079      9081
      9079      9081      9084      9085      9079      9081      9084      9086
      9080      9079      9081      9082      9080      9079      9081      9083
      9080      9079      9081      9084      9081      9084      9086      9087
      9081      9084      9086      9088      9082      9081      9084      9085
      9082      9081      9084      9086      9083      9081      9084      9085
      9083      9081      9084      9086      9084      9086      9088      9089
      9084      9086      9088      9090      9084      9086      9088      9091
      9085      9084      9086      9087      9085      9084      9086      9088
      9086      9088      9091      9092      9086      9088      9091      9093
      9087      9086      9088      9089      9087      9086      9088      9090
      9087      9086      9088      9091      9088      9091      9093      9094
      9088      9091      9093      9095      9089      9088      9091      9092
      9089      9088      9091      9093      9090      9088      9091      9092
      9090      9088      9091      9093      9091      9093      9095      9096
      9091      9093      9095      9097      9091      9093      9095      9098
      9092      9091      9093      9094      9092      9091      9093      9095
      9093      9095      9098      9099      9093      9095      9098      9100
      9093      9095      9098      9101      9094      9093      9095      9096
      9094      9093      9095      9097      9094      9093      9095      9098
      9095      9098      9101      9102      9095      9098      9101      9103
      9095      9098      9101      9104      9096      9095      9098      9099
      9096      9095      9098      9100      9096      9095      9098      9101
      9097      9095      9098      9099      9097      9095      9098      9100
      9097      9095      9098      9101      9098      9101      9104      9105
      9098      9101      9104      9106      9098      9101      9104      9107
      9099      9098      9101      9102      9099      9098      9101      9103
      9099      9098      9101      9104      9100      9098      9101      9102
      9100      9098      9101      9103      9100      9098      9101      9104
      9101      9104      9107      9108      9101      9104      9107      9109
      9101      9104      9107      9110      9102      9101      9104      9105
      9102      9101      9104      9106      9102      9101      9104      9107
      9103      9101      9104      9105      9103      9101      9104      9106
      9103      9101      9104      9107      9105      9104      9107      9108
      9105      9104      9107      9109      9105      9104      9107      9110
      9106      9104      9107      9108      9106      9104      9107      9109
      9106      9104      9107      9110      9111      9114      9117      9118
      9111      9114      9117      9119      9111      9114      9117      9120
      9112      9111      9114      9115      9112      9111      9114      9116
      9112      9111      9114      9117      9113      9111      9114      9115
      9113      9111      9114      9116      9113      9111      9114      9117
      9114      9117      9120      9121      9114      9117      9120      9122
      9114      9117      9120      9123      9115      9114      9117      9118
      9115      9114      9117      9119      9115      9114      9117      9120
      9116      9114      9117      9118      9116      9114      9117      9119
      9116      9114      9117      9120      9117      9120      9123      9124
      9117      9120      9123      9125      9117      9120      9123      9126
      9118      9117      9120      9121      9118      9117      9120      9122
      9118      9117      9120      9123      9119      9117      9120      9121
      9119      9117      9120      9122      9119      9117      9120      9123
      9120      9123      9126      9127      9120      9123      9126      9128
      9120      9123      9126      9129      9121      9120      9123      9124
      9121      9120      9123      9125      9121      9120      9123      9126
      9122      9120      9123      9124      9122      9120      9123      9125
      9122      9120      9123      9126      9123      9126      9129      9130
      9123      9126      9129      9131      9123      9126      9129      9132
      9124      9123      9126      9127      9124      9123      9126      9128
      9124      9123      9126      9129      9125      9123      9126      9127
      9125      9123      9126      9128      9125      9123      9126      9129
      9126      9129      9132      9133      9126      9129      9132      9134
      9126      9129      9132      9135      9127      9126      9129      9130
      9127      9126      9129      9131      9127      9126      9129      9132
      9128      9126      9129      9130      9128      9126      9129      9131
      9128      9126      9129      9132      9129      9132      9135      9136
      9129      9132      9135      9137      9129      9132      9135      9138
      9130      9129      9132      9133      9130      9129      9132      9134
      9130      9129      9132      9135      9131      9129      9132      9133
      9131      9129      9132      9134      9131      9129      9132      9135
      9132      9135      9138      9139      9132      9135      9138      9140
      9132      9135      9138      9141      9133      9132      9135      9136
      9133      9132      9135      9137      9133      9132      9135      9138
      9134      9132      9135      9136      9134      9132      9135      9137
      9134      9132      9135      9138      9135      9138      9141      9142
      9135      9138      9141      9143      9135      9138      9141      9144
      9136      9135      9138      9139      9136      9135      9138      9140
      9136      9135      9138      9141      9137      9135      9138      9139
      9137      9135      9138      9140      9137      9135      9138      9141
      9138      9141      9144      9145      9138      9141      9144      9146
      9138      9141      9144      9147      9139      9138      9141      9142
      9139      9138      9141      9143      9139      9138      9141      9144
      9140      9138      9141      9142      9140      9138      9141      9143
      9140      9138      9141      9144      9141      9144      9147      9148
      9141      9144      9147      9149      9141      9144      9147      9150
      9142      9141      9144      9145      9142      9141      9144      9146
      9142      9141      9144      9147      9143      9141      9144      9145
      9143      9141      9144      9146      9143      9141      9144      9147
      9144      9147      9150      9151      9144      9147      9150      9152
      9144      9147      9150      9153      9145      9144      9147      9148
      9145      9144      9147      9149      9145      9144      9147      9150
      9146      9144      9147      9148      9146      9144      9147      9149
      9146      9144      9147      9150      9147      9150      9153      9154
      9147      9150      9153      9155      9147      9150      9153      9156
      9148      9147      9150      9151      9148      9147      9150      9152
      9148      9147      9150      9153      9149      9147      9150      9151
      9149      9147      9150      9152      9149      9147      9150      9153
      9150      9153      9156      9157      9150      9153      9156      9158
      9150      9153      9156      9159      9151      9150      9153      9154
      9151      9150      9153      9155      9151      9150      9153      9156
      9152      9150      9153      9154      9152      9150      9153      9155
      9152      9150      9153      9156      9154      9153      9156      9157
      9154      9153      9156      9158      9154      9153      9156      9159
      9155      9153      9156      9157      9155      9153      9156      9158
      9155      9153      9156      9159      9160      9164      9167      9168
      9160      9164      9167      9198      9160      9206      9203      9198
      9160      9206      9203      9204      9160      9206      9203      9205
      9161      9160      9162      9163      9161      9160      9164      9165
      9161      9160      9164      9166      9161      9160      9164      9167
      9161      9160      9206      9203      9161      9160      9206      9207
      9161      9160      9206      9208      9162      9160      9164      9165
      9162      9160      9164      9166      9162      9160      9164      9167
      9162      9160      9206      9203      9162      9160      9206      9207
      9162      9160      9206      9208      9163      9162      9160      9164
      9163      9162      9160      9206      9164      9160      9206      9203
      9164      9160      9206      9207      9164      9160      9206      9208
      9164      9167      9168      9169      9164      9167      9168      9170
      9164      9167      9198      9196      9164      9167      9198      9199
      9164      9167      9198      9203      9165      9164      9160      9206
      9165      9164      9167      9168      9165      9164      9167      9198
      9166      9164      9160      9206      9166      9164      9167      9168
      9166      9164      9167      9198      9167      9164      9160      9206
      9167      9168      9170      9171      9167      9168      9170      9172
      9167      9168      9170      9173      9167      9198      9196      9173
      9167      9198      9196      9193      9167      9198      9196      9197
      9167      9198      9199      9200      9167      9198      9199      9201
      9167      9198      9199      9202      9167      9198      9203      9204
      9167      9198      9203      9205      9167      9198      9203      9206
      9168      9167      9198      9196      9168      9167      9198      9199
      9168      9167      9198      9203      9168      9170      9173      9174
      9168      9170      9173      9175      9168      9170      9173      9196
      9169      9168      9167      9198      9169      9168      9170      9171
      9169      9168      9170      9172      9169      9168      9170      9173
      9170      9168      9167      9198      9170      9173      9175      9176
      9170      9173      9175      9177      9170      9173      9175      9185
      9170      9173      9196      9193      9170      9173      9196      9197
      9170      9173      9196      9198      9171      9170      9173      9174
      9171      9170      9173      9175      9171      9170      9173      9196
      9172      9170      9173      9174      9172      9170      9173      9175
      9172      9170      9173      9196      9173      9175      9177      9178
      9173      9175      9177      9179      9173      9175      9177      9180
      9173      9175      9185      9183      9173      9175      9185      9186
      9173      9175      9185      9190      9173      9196      9193      9190
      9173      9196      9193      9194      9173      9196      9193      9195
      9173      9196      9198      9199      9173      9196      9198      9203
      9174      9173      9175      9176      9174      9173      9175      9177
      9174      9173      9175      9185      9174      9173      9196      9193
      9174      9173      9196      9197      9174      9173      9196      9198
      9175      9173      9196      9193      9175      9173      9196      9197
      9175      9173      9196      9198      9175      9177      9180      9181
      9175      9177      9180      9182      9175      9177      9180      9183
      9175      9185      9183      9180      9175      9185      9183      9184
      9175      9185      9183      9209      9175      9185      9186      9187
      9175      9185      9186      9188      9175      9185      9186      9189
      9175      9185      9190      9191      9175      9185      9190      9192
      9175      9185      9190      9193      9176      9175      9173      9196
      9176      9175      9177      9178      9176      9175      9177      9179
      9176      9175      9177      9180      9176      9175      9185      9183
      9176      9175      9185      9186      9176      9175      9185      9190
      9177      9175      9173      9196      9177      9175      9185      9183
      9177      9175      9185      9186      9177      9175      9185      9190
      9177      9180      9183      9184      9177      9180      9183      9185
      9177      9180      9183      9209      9178      9177      9175      9185
      9178      9177      9180      9181      9178      9177      9180      9182
      9178      9177      9180      9183      9179      9177      9175      9185
      9179      9177      9180      9181      9179      9177      9180      9182
      9179      9177      9180      9183      9180      9177      9175      9185
      9180      9183      9185      9186      9180      9183      9185      9190
      9180      9183      9209      9210      9180      9183      9209      9211
      9180      9183      9209      9215      9181      9180      9183      9184
      9181      9180      9183      9185      9181      9180      9183      9209
      9182      9180      9183      9184      9182      9180      9183      9185
      9182      9180      9183      9209      9183      9185      9186      9187
      9183      9185      9186      9188      9183      9185      9186      9189
      9183      9185      9190      9191      9183      9185      9190      9192
      9183      9185      9190      9193      9183      9209      9211      9212
      9183      9209      9211      9213      9183      9209      9211      9214
      9183      9209      9215      9216      9183      9209      9215      9217
      9183      9209      9215      9218      9184      9183      9185      9186
      9184      9183      9185      9190      9184      9183      9209      9210
      9184      9183      9209      9211      9184      9183      9209      9215
      9185      9175      9173      9196      9185      9183      9209      9210
      9185      9183      9209      9211      9185      9183      9209      9215
      9185      9190      9193      9194      9185      9190      9193      9195
      9185      9190      9193      9196      9186      9185      9183      9209
      9186      9185      9190      9191      9186      9185      9190      9192
      9186      9185      9190      9193      9187      9186      9185      9190
      9188      9186      9185      9190      9189      9186      9185      9190
      9190      9185      9183      9209      9190      9193      9196      9197
      9190      9193      9196      9198      9191      9190      9193      9194
      9191      9190      9193      9195      9191      9190      9193      9196
      9192      9190      9193      9194      9192      9190      9193      9195
      9192      9190      9193      9196      9193      9196      9198      9199
      9193      9196      9198      9203      9194      9193      9196      9197
      9194      9193      9196      9198      9195      9193      9196      9197
      9195      9193      9196      9198      9196      9198      9199      9200
      9196      9198      9199      9201      9196      9198      9199      9202
      9196      9198      9203      9204      9196      9198      9203      9205
      9196      9198      9203      9206      9197      9196      9198      9199
      9197      9196      9198      9203      9198      9203      9206      9207
      9198      9203      9206      9208      9199      9198      9203      9204
      9199      9198      9203      9205      9199      9198      9203      9206
      9200      9199      9198      9203      9201      9199      9198      9203
      9202      9199      9198      9203      9204      9203      9206      9207
      9204      9203      9206      9208      9205      9203      9206      9207
      9205      9203      9206      9208      9209      9215      9218      9219
      9209      9215      9218      9220      9209      9215      9218      9221
      9210      9209      9211      9212      9210      9209      9211      9213
      9210      9209      9211      9214      9210      9209      9215      9216
      9210      9209      9215      9217      9210      9209      9215      9218
      9211      9209      9215      9216      9211      9209      9215      9217
      9211      9209      9215      9218      9212      9211      9209      9215
      9213      9211      9209      9215      9214      9211      9209      9215
      9215      9218      9221      9222      9215      9218      9221      9223
      9215      9218      9221      9224      9216      9215      9218      9219
      9216      9215      9218      9220      9216      9215      9218      9221
      9217      9215      9218      9219      9217      9215      9218      9220
      9217      9215      9218      9221      9218      9221      9224      9225
      9218      9221      9224      9226      9218      9221      9224      9230
      9219      9218      9221      9222      9219      9218      9221      9223
      9219      9218      9221      9224      9220      9218      9221      9222
      9220      9218      9221      9223      9220      9218      9221      9224
      9221      9224      9226      9227      9221      9224      9226      9228
      9221      9224      9226      9229      9221      9224      9230      9231
      9221      9224      9230      9232      9221      9224      9230      9233
      9222      9221      9224      9225      9222      9221      9224      9226
      9222      9221      9224      9230      9223      9221      9224      9225
      9223      9221      9224      9226      9223      9221      9224      9230
      9225      9224      9226      9227      9225      9224      9226      9228
      9225      9224      9226      9229      9225      9224      9230      9231
      9225      9224      9230      9232      9225      9224      9230      9233
      9226      9224      9230      9231      9226      9224      9230      9232
      9226      9224      9230      9233      9227      9226      9224      9230
      9228      9226      9224      9230      9229      9226      9224      9230
      9234      9238      9241      9242      9234      9238      9241      9272
      9234      9280      9277      9272      9234      9280      9277      9278
      9234      9280      9277      9279      9235      9234      9236      9237
      9235      9234      9238      9239      9235      9234      9238      9240
      9235      9234      9238      9241      9235      9234      9280      9277
      9235      9234      9280      9281      9235      9234      9280      9282
      9236      9234      9238      9239      9236      9234      9238      9240
      9236      9234      9238      9241      9236      9234      9280      9277
      9236      9234      9280      9281      9236      9234      9280      9282
      9237      9236      9234      9238      9237      9236      9234      9280
      9238      9234      9280      9277      9238      9234      9280      9281
      9238      9234      9280      9282      9238      9241      9242      9243
      9238      9241      9242      9244      9238      9241      9272      9270
      9238      9241      9272      9273      9238      9241      9272      9277
      9239      9238      9234      9280      9239      9238      9241      9242
      9239      9238      9241      9272      9240      9238      9234      9280
      9240      9238      9241      9242      9240      9238      9241      9272
      9241      9238      9234      9280      9241      9242      9244      9245
      9241      9242      9244      9246      9241      9242      9244      9247
      9241      9272      9270      9247      9241      9272      9270      9267
      9241      9272      9270      9271      9241      9272      9273      9274
      9241      9272      9273      9275      9241      9272      9273      9276
      9241      9272      9277      9278      9241      9272      9277      9279
      9241      9272      9277      9280      9242      9241      9272      9270
      9242      9241      9272      9273      9242      9241      9272      9277
      9242      9244      9247      9248      9242      9244      9247      9249
      9242      9244      9247      9270      9243      9242      9241      9272
      9243      9242      9244      9245      9243      9242      9244      9246
      9243      9242      9244      9247      9244      9242      9241      9272
      9244      9247      9249      9250      9244      9247      9249      9251
      9244      9247      9249      9259      9244      9247      9270      9267
      9244      9247      9270      9271      9244      9247      9270      9272
      9245      9244      9247      9248      9245      9244      9247      9249
      9245      9244      9247      9270      9246      9244      9247      9248
      9246      9244      9247      9249      9246      9244      9247      9270
      9247      9249      9251      9252      9247      9249      9251      9253
      9247      9249      9251      9254      9247      9249      9259      9257
      9247      9249      9259      9260      9247      9249      9259      9264
      9247      9270      9267      9264      9247      9270      9267      9268
      9247      9270      9267      9269      9247      9270      9272      9273
      9247      9270      9272      9277      9248      9247      9249      9250
      9248      9247      9249      9251      9248      9247      9249      9259
      9248      9247      9270      9267      9248      9247      9270      9271
      9248      9247      9270      9272      9249      9247      9270      9267
      9249      9247      9270      9271      9249      9247      9270      9272
      9249      9251      9254      9255      9249      9251      9254      9256
      9249      9251      9254      9257      9249      9259      9257      9254
      9249      9259      9257      9258      9249      9259      9257      9283
      9249      9259      9260      9261      9249      9259      9260      9262
      9249      9259      9260      9263      9249      9259      9264      9265
      9249      9259      9264      9266      9249      9259      9264      9267
      9250      9249      9247      9270      9250      9249      9251      9252
      9250      9249      9251      9253      9250      9249      9251      9254
      9250      9249      9259      9257      9250      9249      9259      9260
      9250      9249      9259      9264      9251      9249      9247      9270
      9251      9249      9259      9257      9251      9249      9259      9260
      9251      9249      9259      9264      9251      9254      9257      9258
      9251      9254      9257      9259      9251      9254      9257      9283
      9252      9251      9249      9259      9252      9251      9254      9255
      9252      9251      9254      9256      9252      9251      9254      9257
      9253      9251      9249      9259      9253      9251      9254      9255
      9253      9251      9254      9256      9253      9251      9254      9257
      9254      9251      9249      9259      9254      9257      9259      9260
      9254      9257      9259      9264      9254      9257      9283      9284
      9254      9257      9283      9285      9254      9257      9283      9289
      9255      9254      9257      9258      9255      9254      9257      9259
      9255      9254      9257      9283      9256      9254      9257      9258
      9256      9254      9257      9259      9256      9254      9257      9283
      9257      9259      9260      9261      9257      9259      9260      9262
      9257      9259      9260      9263      9257      9259      9264      9265
      9257      9259      9264      9266      9257      9259      9264      9267
      9257      9283      9285      9286      9257      9283      9285      9287
      9257      9283      9285      9288      9257      9283      9289      9290
      9257      9283      9289      9291      9257      9283      9289      9292
      9258      9257      9259      9260      9258      9257      9259      9264
      9258      9257      9283      9284      9258      9257      9283      9285
      9258      9257      9283      9289      9259      9249      9247      9270
      9259      9257      9283      9284      9259      9257      9283      9285
      9259      9257      9283      9289      9259      9264      9267      9268
      9259      9264      9267      9269      9259      9264      9267      9270
      9260      9259      9257      9283      9260      9259      9264      9265
      9260      9259      9264      9266      9260      9259      9264      9267
      9261      9260      9259      9264      9262      9260      9259      9264
      9263      9260      9259      9264      9264      9259      9257      9283
      9264      9267      9270      9271      9264      9267      9270      9272
      9265      9264      9267      9268      9265      9264      9267      9269
      9265      9264      9267      9270      9266      9264      9267      9268
      9266      9264      9267      9269      9266      9264      9267      9270
      9267      9270      9272      9273      9267      9270      9272      9277
      9268      9267      9270      9271      9268      9267      9270      9272
      9269      9267      9270      9271      9269      9267      9270      9272
      9270      9272      9273      9274      9270      9272      9273      9275
      9270      9272      9273      9276      9270      9272      9277      9278
      9270      9272      9277      9279      9270      9272      9277      9280
      9271      9270      9272      9273      9271      9270      9272      9277
      9272      9277      9280      9281      9272      9277      9280      9282
      9273      9272      9277      9278      9273      9272      9277      9279
      9273      9272      9277      9280      9274      9273      9272      9277
      9275      9273      9272      9277      9276      9273      9272      9277
      9278      9277      9280      9281      9278      9277      9280      9282
      9279      9277      9280      9281      9279      9277      9280      9282
      9283      9289      9292      9293      9283      9289      9292      9294
      9283      9289      9292      9295      9284      9283      9285      9286
      9284      9283      9285      9287      9284      9283      9285      9288
      9284      9283      9289      9290      9284      9283      9289      9291
      9284      9283      9289      9292      9285      9283      9289      9290
      9285      9283      9289      9291      9285      9283      9289      9292
      9286      9285      9283      9289      9287      9285      9283      9289
      9288      9285      9283      9289      9289      9292      9295      9296
      9289      9292      9295      9297      9289      9292      9295      9298
      9290      9289      9292      9293      9290      9289      9292      9294
      9290      9289      9292      9295      9291      9289      9292      9293
      9291      9289      9292      9294      9291      9289      9292      9295
      9292      9295      9298      9299      9292      9295      9298      9300
      9292      9295      9298      9304      9293      9292      9295      9296
      9293      9292      9295      9297      9293      9292      9295      9298
      9294      9292      9295      9296      9294      9292      9295      9297
      9294      9292      9295      9298      9295      9298      9300      9301
      9295      9298      9300      9302      9295      9298      9300      9303
      9295      9298      9304      9305      9295      9298      9304      9306
      9295      9298      9304      9307      9296      9295      9298      9299
      9296      9295      9298      9300      9296      9295      9298      9304
      9297      9295      9298      9299      9297      9295      9298      9300
      9297      9295      9298      9304      9299      9298      9300      9301
      9299      9298      9300      9302      9299      9298      9300      9303
      9299      9298      9304      9305      9299      9298      9304      9306
      9299      9298      9304      9307      9300      9298      9304      9305
      9300      9298      9304      9306      9300      9298      9304      9307
      9301      9300      9298      9304      9302      9300      9298      9304
      9303      9300      9298      9304      9308      9312      9314      9315
      9308      9312      9316      9317      9308      9312      9316      9318
      9308      9312      9316      9320      9308      9328      9324      9320
      9308      9328      9324      9325      9308      9328      9324      9326
      9308      9328      9333      9330      9309      9308      9310      9311
      9309      9308      9312      9313      9309      9308      9312      9314
      9309      9308      9312      9316      9309      9308      9328      9324
      9309      9308      9328      9329      9309      9308      9328      9333
      9310      9308      9312      9313      9310      9308      9312      9314
      9310      9308      9312      9316      9310      9308      9328      9324
      9310      9308      9328      9329      9310      9308      9328      9333
      9311      9310      9308      9312      9311      9310      9308      9328
      9312      9308      9328      9324      9312      9308      9328      9329
      9312      9308      9328      9333      9312      9316      9318      9319
      9312      9316      9320      9321      9312      9316      9320      9322
      9312      9316      9320      9324      9313      9312      9308      9328
      9313      9312      9314      9315      9313      9312      9316      9317
      9313      9312      9316      9318      9313      9312      9316      9320
      9314      9312      9308      9328      9314      9312      9316      9317
      9314      9312      9316      9318      9314      9312      9316      9320
      9315      9314      9312      9316      9316      9312      9308      9328
      9316      9320      9322      9323      9316      9320      9324      9325
      9316      9320      9324      9326      9316      9320      9324      9328
      9317      9316      9318      9319      9317      9316      9320      9321
      9317      9316      9320      9322      9317      9316      9320      9324
      9318      9316      9320      9321      9318      9316      9320      9322
      9318      9316      9320      9324      9319      9318      9316      9320
      9320      9324      9326      9327      9320      9324      9328      9329
      9320      9324      9328      9333      9321      9320      9322      9323
      9321      9320      9324      9325      9321      9320      9324      9326
      9321      9320      9324      9328      9322      9320      9324      9325
      9322      9320      9324      9326      9322      9320      9324      9328
      9323      9322      9320      9324      9324      9328      9333      9330
      9325      9324      9326      9327      9325      9324      9328      9329
      9325      9324      9328      9333      9326      9324      9328      9329
      9326      9324      9328      9333      9327      9326      9324      9328
      9328      9333      9330      9331      9328      9333      9330      9332
      9328      9333      9330      9334      9329      9328      9333      9330
      9330      9334      9335      9336      9330      9334      9335      9337
      9330      9334      9335      9338      9331      9330      9334      9335
      9332      9330      9334      9335      9333      9330      9334      9335
      9334      9335      9338      9339      9334      9335      9338      9340
      9334      9335      9338      9346      9335      9338      9340      9341
      9335      9338      9346      9347      9335      9338      9346      9348
      9335      9338      9346      9349      9336      9335      9338      9339
      9336      9335      9338      9340      9336      9335      9338      9346
      9337      9335      9338      9339      9337      9335      9338      9340
      9337      9335      9338      9346      9338      9340      9341      9342
      9338      9340      9341      9343      9338      9346      9349      9350
      9339      9338      9340      9341      9339      9338      9346      9347
      9339      9338      9346      9348      9339      9338      9346      9349
      9340      9338      9346      9347      9340      9338      9346      9348
      9340      9338      9346      9349      9340      9341      9343      9344
      9340      9341      9343      9345      9340      9341      9343      9355
      9341      9340      9338      9346      9341      9343      9355      9356
      9341      9343      9355      9357      9341      9343      9355      9358
      9342      9341      9343      9344      9342      9341      9343      9345
      9342      9341      9343      9355      9343      9355      9358      9359
      9343      9355      9358      9360      9343      9355      9358      9361
      9344      9343      9355      9356      9344      9343      9355      9357
      9344      9343      9355      9358      9345      9343      9355      9356
      9345      9343      9355      9357      9345      9343      9355      9358
      9346      9349      9350      9351      9346      9349      9350      9352
      9347      9346      9349      9350      9348      9346      9349      9350
      9349      9350      9352      9353      9349      9350      9352      9354
      9349      9350      9352      9402      9350      9352      9402      9403
      9350      9352      9402      9404      9350      9352      9402      9405
      9351      9350      9352      9353      9351      9350      9352      9354
      9351      9350      9352      9402      9352      9402      9405      9406
      9352      9402      9405      9407      9352      9402      9405      9408
      9353      9352      9402      9403      9353      9352      9402      9404
      9353      9352      9402      9405      9354      9352      9402      9403
      9354      9352      9402      9404      9354      9352      9402      9405
      9355      9358      9361      9362      9355      9358      9361      9363
      9356      9355      9358      9359      9356      9355      9358      9360
      9356      9355      9358      9361      9357      9355      9358      9359
      9357      9355      9358      9360      9357      9355      9358      9361
      9358      9361      9363      9364      9358      9361      9363      9365
      9359      9358      9361      9362      9359      9358      9361      9363
      9360      9358      9361      9362      9360      9358      9361      9363
      9361      9363      9365      9366      9361      9363      9365      9367
      9361      9363      9365      9368      9362      9361      9363      9364
      9362      9361      9363      9365      9363      9365      9368      9369
      9363      9365      9368      9370      9364      9363      9365      9366
      9364      9363      9365      9367      9364      9363      9365      9368
      9365      9368      9370      9371      9365      9368      9370      9372
      9366      9365      9368      9369      9366      9365      9368      9370
      9367      9365      9368      9369      9367      9365      9368      9370
      9368      9370      9372      9373      9368      9370      9372      9374
      9368      9370      9372      9375      9369      9368      9370      9371
      9369      9368      9370      9372      9370      9372      9375      9376
      9370      9372      9375      9377      9371      9370      9372      9373
      9371      9370      9372      9374      9371      9370      9372      9375
      9372      9375      9377      9378      9372      9375      9377      9379
      9373      9372      9375      9376      9373      9372      9375      9377
      9374      9372      9375      9376      9374      9372      9375      9377
      9375      9377      9379      9380      9375      9377      9379      9381
      9375      9377      9379      9382      9376      9375      9377      9378
      9376      9375      9377      9379      9377      9379      9382      9383
      9377      9379      9382      9384      9378      9377      9379      9380
      9378      9377      9379      9381      9378      9377      9379      9382
      9379      9382      9384      9385      9379      9382      9384      9386
      9380      9379      9382      9383      9380      9379      9382      9384
      9381      9379      9382      9383      9381      9379      9382      9384
      9382      9384      9386      9387      9382      9384      9386      9388
      9382      9384      9386      9389      9383      9382      9384      9385
      9383      9382      9384      9386      9384      9386      9389      9390
      9384      9386      9389      9391      9384      9386      9389      9392
      9385      9384      9386      9387      9385      9384      9386      9388
      9385      9384      9386      9389      9386      9389      9392      9393
      9386      9389      9392      9394      9386      9389      9392      9395
      9387      9386      9389      9390      9387      9386      9389      9391
      9387      9386      9389      9392      9388      9386      9389      9390
      9388      9386      9389      9391      9388      9386      9389      9392
      9389      9392      9395      9396      9389      9392      9395      9397
      9389      9392      9395      9398      9390      9389      9392      9393
      9390      9389      9392      9394      9390      9389      9392      9395
      9391      9389      9392      9393      9391      9389      9392      9394
      9391      9389      9392      9395      9392      9395      9398      9399
      9392      9395      9398      9400      9392      9395      9398      9401
      9393      9392      9395      9396      9393      9392      9395      9397
      9393      9392      9395      9398      9394      9392      9395      9396
      9394      9392      9395      9397      9394      9392      9395      9398
      9396      9395      9398      9399      9396      9395      9398      9400
      9396      9395      9398      9401      9397      9395      9398      9399
      9397      9395      9398      9400      9397      9395      9398      9401
      9402      9405      9408      9409      9402      9405      9408      9410
      9402      9405      9408      9411      9403      9402      9405      9406
      9403      9402      9405      9407      9403      9402      9405      9408
      9404      9402      9405      9406      9404      9402      9405      9407
      9404      9402      9405      9408      9405      9408      9411      9412
      9405      9408      9411      9413      9405      9408      9411      9414
      9406      9405      9408      9409      9406      9405      9408      9410
      9406      9405      9408      9411      9407      9405      9408      9409
      9407      9405      9408      9410      9407      9405      9408      9411
      9408      9411      9414      9415      9408      9411      9414      9416
      9408      9411      9414      9417      9409      9408      9411      9412
      9409      9408      9411      9413      9409      9408      9411      9414
      9410      9408      9411      9412      9410      9408      9411      9413
      9410      9408      9411      9414      9411      9414      9417      9418
      9411      9414      9417      9419      9411      9414      9417      9420
      9412      9411      9414      9415      9412      9411      9414      9416
      9412      9411      9414      9417      9413      9411      9414      9415
      9413      9411      9414      9416      9413      9411      9414      9417
      9414      9417      9420      9421      9414      9417      9420      9422
      9414      9417      9420      9423      9415      9414      9417      9418
      9415      9414      9417      9419      9415      9414      9417      9420
      9416      9414      9417      9418      9416      9414      9417      9419
      9416      9414      9417      9420      9417      9420      9423      9424
      9417      9420      9423      9425      9417      9420      9423      9426
      9418      9417      9420      9421      9418      9417      9420      9422
      9418      9417      9420      9423      9419      9417      9420      9421
      9419      9417      9420      9422      9419      9417      9420      9423
      9420      9423      9426      9427      9420      9423      9426      9428
      9420      9423      9426      9429      9421      9420      9423      9424
      9421      9420      9423      9425      9421      9420      9423      9426
      9422      9420      9423      9424      9422      9420      9423      9425
      9422      9420      9423      9426      9423      9426      9429      9430
      9423      9426      9429      9431      9423      9426      9429      9432
      9424      9423      9426      9427      9424      9423      9426      9428
      9424      9423      9426      9429      9425      9423      9426      9427
      9425      9423      9426      9428      9425      9423      9426      9429
      9426      9429      9432      9433      9426      9429      9432      9434
      9426      9429      9432      9435      9427      9426      9429      9430
      9427      9426      9429      9431      9427      9426      9429      9432
      9428      9426      9429      9430      9428      9426      9429      9431
      9428      9426      9429      9432      9429      9432      9435      9436
      9429      9432      9435      9437      9429      9432      9435      9438
      9430      9429      9432      9433      9430      9429      9432      9434
      9430      9429      9432      9435      9431      9429      9432      9433
      9431      9429      9432      9434      9431      9429      9432      9435
      9432      9435      9438      9439      9432      9435      9438      9440
      9432      9435      9438      9441      9433      9432      9435      9436
      9433      9432      9435      9437      9433      9432      9435      9438
      9434      9432      9435      9436      9434      9432      9435      9437
      9434      9432      9435      9438      9435      9438      9441      9442
      9435      9438      9441      9443      9435      9438      9441      9444
      9436      9435      9438      9439      9436      9435      9438      9440
      9436      9435      9438      9441      9437      9435      9438      9439
      9437      9435      9438      9440      9437      9435      9438      9441
      9438      9441      9444      9445      9438      9441      9444      9446
      9438      9441      9444      9447      9439      9438      9441      9442
      9439      9438      9441      9443      9439      9438      9441      9444
      9440      9438      9441      9442      9440      9438      9441      9443
      9440      9438      9441      9444      9441      9444      9447      9448
      9441      9444      9447      9449      9441      9444      9447      9450
      9442      9441      9444      9445      9442      9441      9444      9446
      9442      9441      9444      9447      9443      9441      9444      9445
      9443      9441      9444      9446      9443      9441      9444      9447
      9445      9444      9447      9448      9445      9444      9447      9449
      9445      9444      9447      9450      9446      9444      9447      9448
      9446      9444      9447      9449      9446      9444      9447      9450
      9451      9455      9458      9459      9451      9455      9458      9489
      9451      9497      9494      9489      9451      9497      9494      9495
      9451      9497      9494      9496      9452      9451      9453      9454
      9452      9451      9455      9456      9452      9451      9455      9457
      9452      9451      9455      9458      9452      9451      9497      9494
      9452      9451      9497      9498      9452      9451      9497      9499
      9453      9451      9455      9456      9453      9451      9455      9457
      9453      9451      9455      9458      9453      9451      9497      9494
      9453      9451      9497      9498      9453      9451      9497      9499
      9454      9453      9451      9455      9454      9453      9451      9497
      9455      9451      9497      9494      9455      9451      9497      9498
      9455      9451      9497      9499      9455      9458      9459      9460
      9455      9458      9459      9461      9455      9458      9489      9487
      9455      9458      9489      9490      9455      9458      9489      9494
      9456      9455      9451      9497      9456      9455      9458      9459
      9456      9455      9458      9489      9457      9455      9451      9497
      9457      9455      9458      9459      9457      9455      9458      9489
      9458      9455      9451      9497      9458      9459      9461      9462
      9458      9459      9461      9463      9458      9459      9461      9464
      9458      9489      9487      9464      9458      9489      9487      9484
      9458      9489      9487      9488      9458      9489      9490      9491
      9458      9489      9490      9492      9458      9489      9490      9493
      9458      9489      9494      9495      9458      9489      9494      9496
      9458      9489      9494      9497      9459      9458      9489      9487
      9459      9458      9489      9490      9459      9458      9489      9494
      9459      9461      9464      9465      9459      9461      9464      9466
      9459      9461      9464      9487      9460      9459      9458      9489
      9460      9459      9461      9462      9460      9459      9461      9463
      9460      9459      9461      9464      9461      9459      9458      9489
      9461      9464      9466      9467      9461      9464      9466      9468
      9461      9464      9466      9476      9461      9464      9487      9484
      9461      9464      9487      9488      9461      9464      9487      9489
      9462      9461      9464      9465      9462      9461      9464      9466
      9462      9461      9464      9487      9463      9461      9464      9465
      9463      9461      9464      9466      9463      9461      9464      9487
      9464      9466      9468      9469      9464      9466      9468      9470
      9464      9466      9468      9471      9464      9466      9476      9474
      9464      9466      9476      9477      9464      9466      9476      9481
      9464      9487      9484      9481      9464      9487      9484      9485
      9464      9487      9484      9486      9464      9487      9489      9490
      9464      9487      9489      9494      9465      9464      9466      9467
      9465      9464      9466      9468      9465      9464      9466      9476
      9465      9464      9487      9484      9465      9464      9487      9488
      9465      9464      9487      9489      9466      9464      9487      9484
      9466      9464      9487      9488      9466      9464      9487      9489
      9466      9468      9471      9472      9466      9468      9471      9473
      9466      9468      9471      9474      9466      9476      9474      9471
      9466      9476      9474      9475      9466      9476      9474      9500
      9466      9476      9477      9478      9466      9476      9477      9479
      9466      9476      9477      9480      9466      9476      9481      9482
      9466      9476      9481      9483      9466      9476      9481      9484
      9467      9466      9464      9487      9467      9466      9468      9469
      9467      9466      9468      9470      9467      9466      9468      9471
      9467      9466      9476      9474      9467      9466      9476      9477
      9467      9466      9476      9481      9468      9466      9464      9487
      9468      9466      9476      9474      9468      9466      9476      9477
      9468      9466      9476      9481      9468      9471      9474      9475
      9468      9471      9474      9476      9468      9471      9474      9500
      9469      9468      9466      9476      9469      9468      9471      9472
      9469      9468      9471      9473      9469      9468      9471      9474
      9470      9468      9466      9476      9470      9468      9471      9472
      9470      9468      9471      9473      9470      9468      9471      9474
      9471      9468      9466      9476      9471      9474      9476      9477
      9471      9474      9476      9481      9471      9474      9500      9501
      9471      9474      9500      9502      9471      9474      9500      9506
      9472      9471      9474      9475      9472      9471      9474      9476
      9472      9471      9474      9500      9473      9471      9474      9475
      9473      9471      9474      9476      9473      9471      9474      9500
      9474      9476      9477      9478      9474      9476      9477      9479
      9474      9476      9477      9480      9474      9476      9481      9482
      9474      9476      9481      9483      9474      9476      9481      9484
      9474      9500      9502      9503      9474      9500      9502      9504
      9474      9500      9502      9505      9474      9500      9506      9507
      9474      9500      9506      9508      9474      9500      9506      9509
      9475      9474      9476      9477      9475      9474      9476      9481
      9475      9474      9500      9501      9475      9474      9500      9502
      9475      9474      9500      9506      9476      9466      9464      9487
      9476      9474      9500      9501      9476      9474      9500      9502
      9476      9474      9500      9506      9476      9481      9484      9485
      9476      9481      9484      9486      9476      9481      9484      9487
      9477      9476      9474      9500      9477      9476      9481      9482
      9477      9476      9481      9483      9477      9476      9481      9484
      9478      9477      9476      9481      9479      9477      9476      9481
      9480      9477      9476      9481      9481      9476      9474      9500
      9481      9484      9487      9488      9481      9484      9487      9489
      9482      9481      9484      9485      9482      9481      9484      9486
      9482      9481      9484      9487      9483      9481      9484      9485
      9483      9481      9484      9486      9483      9481      9484      9487
      9484      9487      9489      9490      9484      9487      9489      9494
      9485      9484      9487      9488      9485      9484      9487      9489
      9486      9484      9487      9488      9486      9484      9487      9489
      9487      9489      9490      9491      9487      9489      9490      9492
      9487      9489      9490      9493      9487      9489      9494      9495
      9487      9489      9494      9496      9487      9489      9494      9497
      9488      9487      9489      9490      9488      9487      9489      9494
      9489      9494      9497      9498      9489      9494      9497      9499
      9490      9489      9494      9495      9490      9489      9494      9496
      9490      9489      9494      9497      9491      9490      9489      9494
      9492      9490      9489      9494      9493      9490      9489      9494
      9495      9494      9497      9498      9495      9494      9497      9499
      9496      9494      9497      9498      9496      9494      9497      9499
      9500      9506      9509      9510      9500      9506      9509      9511
      9500      9506      9509      9512      9501      9500      9502      9503
      9501      9500      9502      9504      9501      9500      9502      9505
      9501      9500      9506      9507      9501      9500      9506      9508
      9501      9500      9506      9509      9502      9500      9506      9507
      9502      9500      9506      9508      9502      9500      9506      9509
      9503      9502      9500      9506      9504      9502      9500      9506
      9505      9502      9500      9506      9506      9509      9512      9513
      9506      9509      9512      9514      9506      9509      9512      9515
      9507      9506      9509      9510      9507      9506      9509      9511
      9507      9506      9509      9512      9508      9506      9509      9510
      9508      9506      9509      9511      9508      9506      9509      9512
      9509      9512      9515      9516      9509      9512      9515      9517
      9509      9512      9515      9521      9510      9509      9512      9513
      9510      9509      9512      9514      9510      9509      9512      9515
      9511      9509      9512      9513      9511      9509      9512      9514
      9511      9509      9512      9515      9512      9515      9517      9518
      9512      9515      9517      9519      9512      9515      9517      9520
      9512      9515      9521      9522      9512      9515      9521      9523
      9512      9515      9521      9524      9513      9512      9515      9516
      9513      9512      9515      9517      9513      9512      9515      9521
      9514      9512      9515      9516      9514      9512      9515      9517
      9514      9512      9515      9521      9516      9515      9517      9518
      9516      9515      9517      9519      9516      9515      9517      9520
      9516      9515      9521      9522      9516      9515      9521      9523
      9516      9515      9521      9524      9517      9515      9521      9522
      9517      9515      9521      9523      9517      9515      9521      9524
      9518      9517      9515      9521      9519      9517      9515      9521
      9520      9517      9515      9521      9525      9529      9532      9533
      9525      9529      9532      9534      9525      9529      9532      9538
      9526      9525      9529      9530      9526      9525      9529      9531
      9526      9525      9529      9532      9527      9525      9529      9530
      9527      9525      9529      9531      9527      9525      9529      9532
      9528      9525      9529      9530      9528      9525      9529      9531
      9528      9525      9529      9532      9529      9532      9538      9535
      9530      9529      9532      9533      9530      9529      9532      9534
      9530      9529      9532      9538      9531      9529      9532      9533
      9531      9529      9532      9534      9531      9529      9532      9538
      9532      9538      9535      9536      9532      9538      9535      9537
      9532      9538      9535      9539      9533      9532      9538      9535
      9534      9532      9538      9535      9535      9539      9540      9541
      9535      9539      9540      9542      9535      9539      9540      9543
      9536      9535      9539      9540      9537      9535      9539      9540
      9538      9535      9539      9540      9539      9540      9543      9544
      9539      9540      9543      9545      9539      9540      9543      9551
      9540      9543      9545      9546      9540      9543      9551      9552
      9540      9543      9551      9553      9540      9543      9551      9554
      9541      9540      9543      9544      9541      9540      9543      9545
      9541      9540      9543      9551      9542      9540      9543      9544
      9542      9540      9543      9545      9542      9540      9543      9551
      9543      9545      9546      9547      9543      9545      9546      9548
      9543      9551      9554      9555      9544      9543      9545      9546
      9544      9543      9551      9552      9544      9543      9551      9553
      9544      9543      9551      9554      9545      9543      9551      9552
      9545      9543      9551      9553      9545      9543      9551      9554
      9545      9546      9548      9549      9545      9546      9548      9550
      9545      9546      9548      9560      9546      9545      9543      9551
      9546      9548      9560      9561      9546      9548      9560      9562
      9546      9548      9560      9563      9547      9546      9548      9549
      9547      9546      9548      9550      9547      9546      9548      9560
      9548      9560      9563      9564      9548      9560      9563      9565
      9548      9560      9563      9566      9549      9548      9560      9561
      9549      9548      9560      9562      9549      9548      9560      9563
      9550      9548      9560      9561      9550      9548      9560      9562
      9550      9548      9560      9563      9551      9554      9555      9556
      9551      9554      9555      9557      9552      9551      9554      9555
      9553      9551      9554      9555      9554      9555      9557      9558
      9554      9555      9557      9559      9554      9555      9557      9607
      9555      9557      9607      9608      9555      9557      9607      9609
      9555      9557      9607      9610      9556      9555      9557      9558
      9556      9555      9557      9559      9556      9555      9557      9607
      9557      9607      9610      9611      9557      9607      9610      9612
      9557      9607      9610      9613      9558      9557      9607      9608
      9558      9557      9607      9609      9558      9557      9607      9610
      9559      9557      9607      9608      9559      9557      9607      9609
      9559      9557      9607      9610      9560      9563      9566      9567
      9560      9563      9566      9568      9560      9563      9566      9569
      9561      9560      9563      9564      9561      9560      9563      9565
      9561      9560      9563      9566      9562      9560      9563      9564
      9562      9560      9563      9565      9562      9560      9563      9566
      9563      9566      9569      9570      9563      9566      9569      9571
      9563      9566      9569      9572      9564      9563      9566      9567
      9564      9563      9566      9568      9564      9563      9566      9569
      9565      9563      9566      9567      9565      9563      9566      9568
      9565      9563      9566      9569      9566      9569      9572      9573
      9566      9569      9572      9574      9566      9569      9572      9575
      9567      9566      9569      9570      9567      9566      9569      9571
      9567      9566      9569      9572      9568      9566      9569      9570
      9568      9566      9569      9571      9568      9566      9569      9572
      9569      9572      9575      9576      9569      9572      9575      9577
      9569      9572      9575      9578      9570      9569      9572      9573
      9570      9569      9572      9574      9570      9569      9572      9575
      9571      9569      9572      9573      9571      9569      9572      9574
      9571      9569      9572      9575      9572      9575      9578      9579
      9572      9575      9578      9580      9573      9572      9575      9576
      9573      9572      9575      9577      9573      9572      9575      9578
      9574      9572      9575      9576      9574      9572      9575      9577
      9574      9572      9575      9578      9575      9578      9580      9581
      9575      9578      9580      9582      9576      9575      9578      9579
      9576      9575      9578      9580      9577      9575      9578      9579
      9577      9575      9578      9580      9578      9580      9582      9583
      9578      9580      9582      9584      9578      9580      9582      9585
      9579      9578      9580      9581      9579      9578      9580      9582
      9580      9582      9585      9586      9580      9582      9585      9587
      9580      9582      9585      9588      9581      9580      9582      9583
      9581      9580      9582      9584      9581      9580      9582      9585
      9582      9585      9588      9589      9582      9585      9588      9590
      9582      9585      9588      9591      9583      9582      9585      9586
      9583      9582      9585      9587      9583      9582      9585      9588
      9584      9582      9585      9586      9584      9582      9585      9587
      9584      9582      9585      9588      9585      9588      9591      9592
      9585      9588      9591      9593      9585      9588      9591      9594
      9586      9585      9588      9589      9586      9585      9588      9590
      9586      9585      9588      9591      9587      9585      9588      9589
      9587      9585      9588      9590      9587      9585      9588      9591
      9588      9591      9594      9595      9588      9591      9594      9596
      9588      9591      9594      9597      9589      9588      9591      9592
      9589      9588      9591      9593      9589      9588      9591      9594
      9590      9588      9591      9592      9590      9588      9591      9593
      9590      9588      9591      9594      9591      9594      9597      9598
      9591      9594      9597      9599      9591      9594      9597      9600
      9592      9591      9594      9595      9592      9591      9594      9596
      9592      9591      9594      9597      9593      9591      9594      9595
      9593      9591      9594      9596      9593      9591      9594      9597
      9594      9597      9600      9601      9594      9597      9600      9602
      9594      9597      9600      9603      9595      9594      9597      9598
      9595      9594      9597      9599      9595      9594      9597      9600
      9596      9594      9597      9598      9596      9594      9597      9599
      9596      9594      9597      9600      9597      9600      9603      9604
      9597      9600      9603      9605      9597      9600      9603      9606
      9598      9597      9600      9601      9598      9597      9600      9602
      9598      9597      9600      9603      9599      9597      9600      9601
      9599      9597      9600      9602      9599      9597      9600      9603
      9601      9600      9603      9604      9601      9600      9603      9605
      9601      9600      9603      9606      9602      9600      9603      9604
      9602      9600      9603      9605      9602      9600      9603      9606
      9607      9610      9613      9614      9607      9610      9613      9615
      9607      9610      9613      9616      9608      9607      9610      9611
      9608      9607      9610      9612      9608      9607      9610      9613
      9609      9607      9610      9611      9609      9607      9610      9612
      9609      9607      9610      9613      9610      9613      9616      9617
      9610      9613      9616      9618      9610      9613      9616      9619
      9611      9610      9613      9614      9611      9610      9613      9615
      9611      9610      9613      9616      9612      9610      9613      9614
      9612      9610      9613      9615      9612      9610      9613      9616
      9613      9616      9619      9620      9613      9616      9619      9621
      9613      9616      9619      9622      9614      9613      9616      9617
      9614      9613      9616      9618      9614      9613      9616      9619
      9615      9613      9616      9617      9615      9613      9616      9618
      9615      9613      9616      9619      9616      9619      9622      9623
      9616      9619      9622      9624      9616      9619      9622      9625
      9617      9616      9619      9620      9617      9616      9619      9621
      9617      9616      9619      9622      9618      9616      9619      9620
      9618      9616      9619      9621      9618      9616      9619      9622
      9619      9622      9625      9626      9619      9622      9625      9627
      9619      9622      9625      9628      9620      9619      9622      9623
      9620      9619      9622      9624      9620      9619      9622      9625
      9621      9619      9622      9623      9621      9619      9622      9624
      9621      9619      9622      9625      9622      9625      9628      9629
      9622      9625      9628      9630      9622      9625      9628      9631
      9623      9622      9625      9626      9623      9622      9625      9627
      9623      9622      9625      9628      9624      9622      9625      9626
      9624      9622      9625      9627      9624      9622      9625      9628
      9625      9628      9631      9632      9625      9628      9631      9633
      9625      9628      9631      9634      9626      9625      9628      9629
      9626      9625      9628      9630      9626      9625      9628      9631
      9627      9625      9628      9629      9627      9625      9628      9630
      9627      9625      9628      9631      9628      9631      9634      9635
      9628      9631      9634      9636      9628      9631      9634      9637
      9629      9628      9631      9632      9629      9628      9631      9633
      9629      9628      9631      9634      9630      9628      9631      9632
      9630      9628      9631      9633      9630      9628      9631      9634
      9631      9634      9637      9638      9631      9634      9637      9639
      9631      9634      9637      9640      9632      9631      9634      9635
      9632      9631      9634      9636      9632      9631      9634      9637
      9633      9631      9634      9635      9633      9631      9634      9636
      9633      9631      9634      9637      9634      9637      9640      9641
      9634      9637      9640      9642      9634      9637      9640      9643
      9635      9634      9637      9638      9635      9634      9637      9639
      9635      9634      9637      9640      9636      9634      9637      9638
      9636      9634      9637      9639      9636      9634      9637      9640
      9637      9640      9643      9644      9637      9640      9643      9645
      9637      9640      9643      9646      9638      9637      9640      9641
      9638      9637      9640      9642      9638      9637      9640      9643
      9639      9637      9640      9641      9639      9637      9640      9642
      9639      9637      9640      9643      9640      9643      9646      9647
      9640      9643      9646      9648      9640      9643      9646      9649
      9641      9640      9643      9644      9641      9640      9643      9645
      9641      9640      9643      9646      9642      9640      9643      9644
      9642      9640      9643      9645      9642      9640      9643      9646
      9643      9646      9649      9650      9643      9646      9649      9651
      9643      9646      9649      9652      9644      9643      9646      9647
      9644      9643      9646      9648      9644      9643      9646      9649
      9645      9643      9646      9647      9645      9643      9646      9648
      9645      9643      9646      9649      9646      9649      9652      9653
      9646      9649      9652      9654      9646      9649      9652      9655
      9647      9646      9649      9650      9647      9646      9649      9651
      9647      9646      9649      9652      9648      9646      9649      9650
      9648      9646      9649      9651      9648      9646      9649      9652
      9650      9649      9652      9653      9650      9649      9652      9654
      9650      9649      9652      9655      9651      9649      9652      9653
      9651      9649      9652      9654      9651      9649      9652      9655
      9656      9669      9672      9673      9656      9669      9672      9674
      9656      9669      9672      9679      9657      9656      9661      9662
      9657      9656      9661      9663      9657      9656      9661      9664
      9657      9656      9665      9666      9657      9656      9665      9667
      9657      9656      9665      9668      9657      9656      9669      9670
      9657      9656      9669      9671      9657      9656      9669      9672
      9658      9657      9656      9661      9658      9657      9656      9665
      9658      9657      9656      9669      9659      9657      9656      9661
      9659      9657      9656      9665      9659      9657      9656      9669
      9660      9657      9656      9661      9660      9657      9656      9665
      9660      9657      9656      9669      9661      9656      9665      9666
      9661      9656      9665      9667      9661      9656      9665      9668
      9661      9656      9669      9670      9661      9656      9669      9671
      9661      9656      9669      9672      9662      9661      9656      9665
      9662      9661      9656      9669      9663      9661      9656      9665
      9663      9661      9656      9669      9664      9661      9656      9665
      9664      9661      9656      9669      9665      9656      9669      9670
      9665      9656      9669      9671      9665      9656      9669      9672
      9666      9665      9656      9669      9667      9665      9656      9669
      9668      9665      9656      9669      9669      9672      9679      9675
      9670      9669      9672      9673      9670      9669      9672      9674
      9670      9669      9672      9679      9671      9669      9672      9673
      9671      9669      9672      9674      9671      9669      9672      9679
      9672      9679      9675      9676      9672      9679      9675      9677
      9672      9679      9675      9678      9673      9672      9679      9675
      9674      9672      9679      9675      9675      9678      9680      9681
      9675      9678      9680      9682      9675      9678      9680      9685
      9676      9675      9678      9680      9677      9675      9678      9680
      9678      9680      9685      9683      9678      9680      9685      9686
      9678      9680      9685      9687      9679      9675      9678      9680
      9680      9685      9683      9684      9680      9685      9683      9735
      9680      9685      9687      9688      9680      9685      9687      9689
      9680      9685      9687      9691      9681      9680      9685      9683
      9681      9680      9685      9686      9681      9680      9685      9687
      9682      9680      9685      9683      9682      9680      9685      9686
      9682      9680      9685      9687      9683      9685      9687      9688
      9683      9685      9687      9689      9683      9685      9687      9691
      9683      9735      9737      9738      9683      9735      9737      9739
      9683      9735      9737      9740      9684      9683      9685      9686
      9684      9683      9685      9687      9684      9683      9735      9736
      9684      9683      9735      9737      9685      9683      9735      9736
      9685      9683      9735      9737      9685      9687      9689      9690
      9685      9687      9691      9692      9685      9687      9691      9693
      9686      9685      9683      9735      9686      9685      9687      9688
      9686      9685      9687      9689      9686      9685      9687      9691
      9687      9685      9683      9735      9687      9691      9693      9694
      9687      9691      9693      9695      9688      9687      9689      9690
      9688      9687      9691      9692      9688      9687      9691      9693
      9689      9687      9691      9692      9689      9687      9691      9693
      9690      9689      9687      9691      9691      9693      9695      9696
      9691      9693      9695      9697      9691      9693      9695      9698
      9692      9691      9693      9694      9692      9691      9693      9695
      9693      9695      9698      9699      9693      9695      9698      9700
      9693      9695      9698      9701      9694      9693      9695      9696
      9694      9693      9695      9697      9694      9693      9695      9698
      9695      9698      9701      9702      9695      9698      9701      9703
      9695      9698      9701      9704      9696      9695      9698      9699
      9696      9695      9698      9700      9696      9695      9698      9701
      9697      9695      9698      9699      9697      9695      9698      9700
      9697      9695      9698      9701      9698      9701      9704      9705
      9698      9701      9704      9706      9698      9701      9704      9707
      9699      9698      9701      9702      9699      9698      9701      9703
      9699      9698      9701      9704      9700      9698      9701      9702
      9700      9698      9701      9703      9700      9698      9701      9704
      9701      9704      9707      9708      9701      9704      9707      9709
      9701      9704      9707      9710      9702      9701      9704      9705
      9702      9701      9704      9706      9702      9701      9704      9707
      9703      9701      9704      9705      9703      9701      9704      9706
      9703      9701      9704      9707      9704      9707      9710      9711
      9704      9707      9710      9712      9704      9707      9710      9713
      9705      9704      9707      9708      9705      9704      9707      9709
      9705      9704      9707      9710      9706      9704      9707      9708
      9706      9704      9707      9709      9706      9704      9707      9710
      9707      9710      9713      9714      9707      9710      9713      9715
      9707      9710      9713      9716      9708      9707      9710      9711
      9708      9707      9710      9712      9708      9707      9710      9713
      9709      9707      9710      9711      9709      9707      9710      9712
      9709      9707      9710      9713      9710      9713      9716      9717
      9710      9713      9716      9718      9710      9713      9716      9719
      9711      9710      9713      9714      9711      9710      9713      9715
      9711      9710      9713      9716      9712      9710      9713      9714
      9712      9710      9713      9715      9712      9710      9713      9716
      9713      9716      9719      9720      9713      9716      9719      9721
      9713      9716      9719      9722      9714      9713      9716      9717
      9714      9713      9716      9718      9714      9713      9716      9719
      9715      9713      9716      9717      9715      9713      9716      9718
      9715      9713      9716      9719      9716      9719      9722      9723
      9716      9719      9722      9724      9716      9719      9722      9725
      9717      9716      9719      9720      9717      9716      9719      9721
      9717      9716      9719      9722      9718      9716      9719      9720
      9718      9716      9719      9721      9718      9716      9719      9722
      9719      9722      9725      9726      9719      9722      9725      9727
      9719      9722      9725      9728      9720      9719      9722      9723
      9720      9719      9722      9724      9720      9719      9722      9725
      9721      9719      9722      9723      9721      9719      9722      9724
      9721      9719      9722      9725      9722      9725      9728      9729
      9722      9725      9728      9730      9722      9725      9728      9731
      9723      9722      9725      9726      9723      9722      9725      9727
      9723      9722      9725      9728      9724      9722      9725      9726
      9724      9722      9725      9727      9724      9722      9725      9728
      9725      9728      9731      9732      9725      9728      9731      9733
      9725      9728      9731      9734      9726      9725      9728      9729
      9726      9725      9728      9730      9726      9725      9728      9731
      9727      9725      9728      9729      9727      9725      9728      9730
      9727      9725      9728      9731      9729      9728      9731      9732
      9729      9728      9731      9733      9729      9728      9731      9734
      9730      9728      9731      9732      9730      9728      9731      9733
      9730      9728      9731      9734      9735      9737      9740      9741
      9735      9737      9740      9742      9735      9737      9740      9743
      9736      9735      9737      9738      9736      9735      9737      9739
      9736      9735      9737      9740      9737      9740      9743      9744
      9737      9740      9743      9745      9737      9740      9743      9746
      9738      9737      9740      9741      9738      9737      9740      9742
      9738      9737      9740      9743      9739      9737      9740      9741
      9739      9737      9740      9742      9739      9737      9740      9743
      9740      9743      9746      9747      9740      9743      9746      9748
      9740      9743      9746      9749      9741      9740      9743      9744
      9741      9740      9743      9745      9741      9740      9743      9746
      9742      9740      9743      9744      9742      9740      9743      9745
      9742      9740      9743      9746      9743      9746      9749      9750
      9743      9746      9749      9751      9743      9746      9749      9752
      9744      9743      9746      9747      9744      9743      9746      9748
      9744      9743      9746      9749      9745      9743      9746      9747
      9745      9743      9746      9748      9745      9743      9746      9749
      9746      9749      9752      9753      9746      9749      9752      9754
      9746      9749      9752      9755      9747      9746      9749      9750
      9747      9746      9749      9751      9747      9746      9749      9752
      9748      9746      9749      9750      9748      9746      9749      9751
      9748      9746      9749      9752      9749      9752      9755      9756
      9749      9752      9755      9757      9749      9752      9755      9758
      9750      9749      9752      9753      9750      9749      9752      9754
      9750      9749      9752      9755      9751      9749      9752      9753
      9751      9749      9752      9754      9751      9749      9752      9755
      9752      9755      9758      9759      9752      9755      9758      9760
      9753      9752      9755      9756      9753      9752      9755      9757
      9753      9752      9755      9758      9754      9752      9755      9756
      9754      9752      9755      9757      9754      9752      9755      9758
      9755      9758      9760      9761      9755      9758      9760      9762
      9756      9755      9758      9759      9756      9755      9758      9760
      9757      9755      9758      9759      9757      9755      9758      9760
      9758      9760      9762      9763      9758      9760      9762      9764
      9758      9760      9762      9765      9759      9758      9760      9761
      9759      9758      9760      9762      9760      9762      9765      9766
      9760      9762      9765      9767      9760      9762      9765      9768
      9761      9760      9762      9763      9761      9760      9762      9764
      9761      9760      9762      9765      9762      9765      9768      9769
      9762      9765      9768      9770      9762      9765      9768      9771
      9763      9762      9765      9766      9763      9762      9765      9767
      9763      9762      9765      9768      9764      9762      9765      9766
      9764      9762      9765      9767      9764      9762      9765      9768
      9765      9768      9771      9772      9765      9768      9771      9773
      9765      9768      9771      9774      9766      9765      9768      9769
      9766      9765      9768      9770      9766      9765      9768      9771
      9767      9765      9768      9769      9767      9765      9768      9770
      9767      9765      9768      9771      9768      9771      9774      9775
      9768      9771      9774      9776      9768      9771      9774      9777
      9769      9768      9771      9772      9769      9768      9771      9773
      9769      9768      9771      9774      9770      9768      9771      9772
      9770      9768      9771      9773      9770      9768      9771      9774
      9771      9774      9777      9778      9771      9774      9777      9779
      9771      9774      9777      9780      9772      9771      9774      9775
      9772      9771      9774      9776      9772      9771      9774      9777
      9773      9771      9774      9775      9773      9771      9774      9776
      9773      9771      9774      9777      9774      9777      9780      9781
      9774      9777      9780      9782      9774      9777      9780      9783
      9775      9774      9777      9778      9775      9774      9777      9779
      9775      9774      9777      9780      9776      9774      9777      9778
      9776      9774      9777      9779      9776      9774      9777      9780
      9777      9780      9783      9784      9777      9780      9783      9785
      9777      9780      9783      9786      9778      9777      9780      9781
      9778      9777      9780      9782      9778      9777      9780      9783
      9779      9777      9780      9781      9779      9777      9780      9782
      9779      9777      9780      9783      9781      9780      9783      9784
      9781      9780      9783      9785      9781      9780      9783      9786
      9782      9780      9783      9784      9782      9780      9783      9785
      9782      9780      9783      9786      9787      9791      9793      9794
      9787      9791      9793      9795      9787      9791      9796      9797
      9787      9791      9796      9798      9787      9791      9796      9802
      9788      9787      9791      9792      9788      9787      9791      9793
      9788      9787      9791      9796      9789      9787      9791      9792
      9789      9787      9791      9793      9789      9787      9791      9796
      9790      9787      9791      9792      9790      9787      9791      9793
      9790      9787      9791      9796      9791      9796      9802      9799
      9792      9791      9793      9794      9792      9791      9793      9795
      9792      9791      9796      9797      9792      9791      9796      9798
      9792      9791      9796      9802      9793      9791      9796      9797
      9793      9791      9796      9798      9793      9791      9796      9802
      9794      9793      9791      9796      9795      9793      9791      9796
      9796      9802      9799      9800      9796      9802      9799      9801
      9796      9802      9799      9803      9797      9796      9802      9799
      9798      9796      9802      9799      9799      9803      9804      9805
      9799      9803      9804      9806      9799      9803      9804      9807
      9800      9799      9803      9804      9801      9799      9803      9804
      9802      9799      9803      9804      9803      9804      9807      9808
      9803      9804      9807      9809      9803      9804      9807      9815
      9804      9807      9809      9810      9804      9807      9815      9816
      9804      9807      9815      9817      9804      9807      9815      9818
      9805      9804      9807      9808      9805      9804      9807      9809
      9805      9804      9807      9815      9806      9804      9807      9808
      9806      9804      9807      9809      9806      9804      9807      9815
      9807      9809      9810      9811      9807      9809      9810      9812
      9807      9815      9818      9819      9808      9807      9809      9810
      9808      9807      9815      9816      9808      9807      9815      9817
      9808      9807      9815      9818      9809      9807      9815      9816
      9809      9807      9815      9817      9809      9807      9815      9818
      9809      9810      9812      9813      9809      9810      9812      9814
      9809      9810      9812      9824      9810      9809      9807      9815
      9810      9812      9824      9825      9810      9812      9824      9826
      9810      9812      9824      9827      9811      9810      9812      9813
      9811      9810      9812      9814      9811      9810      9812      9824
      9812      9824      9827      9828      9812      9824      9827      9829
      9812      9824      9827      9830      9813      9812      9824      9825
      9813      9812      9824      9826      9813      9812      9824      9827
      9814      9812      9824      9825      9814      9812      9824      9826
      9814      9812      9824      9827      9815      9818      9819      9820
      9815      9818      9819      9821      9816      9815      9818      9819
      9817      9815      9818      9819      9818      9819      9821      9822
      9818      9819      9821      9823      9818      9819      9821      9871
      9819      9821      9871      9872      9819      9821      9871      9873
      9819      9821      9871      9874      9820      9819      9821      9822
      9820      9819      9821      9823      9820      9819      9821      9871
      9821      9871      9874      9875      9821      9871      9874      9876
      9821      9871      9874      9877      9822      9821      9871      9872
      9822      9821      9871      9873      9822      9821      9871      9874
      9823      9821      9871      9872      9823      9821      9871      9873
      9823      9821      9871      9874      9824      9827      9830      9831
      9824      9827      9830      9832      9825      9824      9827      9828
      9825      9824      9827      9829      9825      9824      9827      9830
      9826      9824      9827      9828      9826      9824      9827      9829
      9826      9824      9827      9830      9827      9830      9832      9833
      9827      9830      9832      9834      9828      9827      9830      9831
      9828      9827      9830      9832      9829      9827      9830      9831
      9829      9827      9830      9832      9830      9832      9834      9835
      9830      9832      9834      9836      9830      9832      9834      9837
      9831      9830      9832      9833      9831      9830      9832      9834
      9832      9834      9837      9838      9832      9834      9837      9839
      9833      9832      9834      9835      9833      9832      9834      9836
      9833      9832      9834      9837      9834      9837      9839      9840
      9834      9837      9839      9841      9835      9834      9837      9838
      9835      9834      9837      9839      9836      9834      9837      9838
      9836      9834      9837      9839      9837      9839      9841      9842
      9837      9839      9841      9843      9837      9839      9841      9844
      9838      9837      9839      9840      9838      9837      9839      9841
      9839      9841      9844      9845      9839      9841      9844      9846
      9840      9839      9841      9842      9840      9839      9841      9843
      9840      9839      9841      9844      9841      9844      9846      9847
      9841      9844      9846      9848      9842      9841      9844      9845
      9842      9841      9844      9846      9843      9841      9844      9845
      9843      9841      9844      9846      9844      9846      9848      9849
      9844      9846      9848      9850      9844      9846      9848      9851
      9845      9844      9846      9847      9845      9844      9846      9848
      9846      9848      9851      9852      9846      9848      9851      9853
      9847      9846      9848      9849      9847      9846      9848      9850
      9847      9846      9848      9851      9848      9851      9853      9854
      9848      9851      9853      9855      9849      9848      9851      9852
      9849      9848      9851      9853      9850      9848      9851      9852
      9850      9848      9851      9853      9851      9853      9855      9856
      9851      9853      9855      9857      9851      9853      9855      9858
      9852      9851      9853      9854      9852      9851      9853      9855
      9853      9855      9858      9859      9853      9855      9858      9860
      9853      9855      9858      9861      9854      9853      9855      9856
      9854      9853      9855      9857      9854      9853      9855      9858
      9855      9858      9861      9862      9855      9858      9861      9863
      9855      9858      9861      9864      9856      9855      9858      9859
      9856      9855      9858      9860      9856      9855      9858      9861
      9857      9855      9858      9859      9857      9855      9858      9860
      9857      9855      9858      9861      9858      9861      9864      9865
      9858      9861      9864      9866      9858      9861      9864      9867
      9859      9858      9861      9862      9859      9858      9861      9863
      9859      9858      9861      9864      9860      9858      9861      9862
      9860      9858      9861      9863      9860      9858      9861      9864
      9861      9864      9867      9868      9861      9864      9867      9869
      9861      9864      9867      9870      9862      9861      9864      9865
      9862      9861      9864      9866      9862      9861      9864      9867
      9863      9861      9864      9865      9863      9861      9864      9866
      9863      9861      9864      9867      9865      9864      9867      9868
      9865      9864      9867      9869      9865      9864      9867      9870
      9866      9864      9867      9868      9866      9864      9867      9869
      9866      9864      9867      9870      9871      9874      9877      9878
      9871      9874      9877      9879      9871      9874      9877      9880
      9872      9871      9874      9875      9872      9871      9874      9876
      9872      9871      9874      9877      9873      9871      9874      9875
      9873      9871      9874      9876      9873      9871      9874      9877
      9874      9877      9880      9881      9874      9877      9880      9882
      9874      9877      9880      9883      9875      9874      9877      9878
      9875      9874      9877      9879      9875      9874      9877      9880
      9876      9874      9877      9878      9876      9874      9877      9879
      9876      9874      9877      9880      9877      9880      9883      9884
      9877      9880      9883      9885      9877      9880      9883      9886
      9878      9877      9880      9881      9878      9877      9880      9882
      9878      9877      9880      9883      9879      9877      9880      9881
      9879      9877      9880      9882      9879      9877      9880      9883
      9880      9883      9886      9887      9880      9883      9886      9888
      9880      9883      9886      9889      9881      9880      9883      9884
      9881      9880      9883      9885      9881      9880      9883      9886
      9882      9880      9883      9884      9882      9880      9883      9885
      9882      9880      9883      9886      9883      9886      9889      9890
      9883      9886      9889      9891      9883      9886      9889      9892
      9884      9883      9886      9887      9884      9883      9886      9888
      9884      9883      9886      9889      9885      9883      9886      9887
      9885      9883      9886      9888      9885      9883      9886      9889
      9886      9889      9892      9893      9886      9889      9892      9894
      9886      9889      9892      9895      9887      9886      9889      9890
      9887      9886      9889      9891      9887      9886      9889      9892
      9888      9886      9889      9890      9888      9886      9889      9891
      9888      9886      9889      9892      9889      9892      9895      9896
      9889      9892      9895      9897      9889      9892      9895      9898
      9890      9889      9892      9893      9890      9889      9892      9894
      9890      9889      9892      9895      9891      9889      9892      9893
      9891      9889      9892      9894      9891      9889      9892      9895
      9892      9895      9898      9899      9892      9895      9898      9900
      9892      9895      9898      9901      9893      9892      9895      9896
      9893      9892      9895      9897      9893      9892      9895      9898
      9894      9892      9895      9896      9894      9892      9895      9897
      9894      9892      9895      9898      9895      9898      9901      9902
      9895      9898      9901      9903      9895      9898      9901      9904
      9896      9895      9898      9899      9896      9895      9898      9900
      9896      9895      9898      9901      9897      9895      9898      9899
      9897      9895      9898      9900      9897      9895      9898      9901
      9898      9901      9904      9905      9898      9901      9904      9906
      9898      9901      9904      9907      9899      9898      9901      9902
      9899      9898      9901      9903      9899      9898      9901      9904
      9900      9898      9901      9902      9900      9898      9901      9903
      9900      9898      9901      9904      9901      9904      9907      9908
      9901      9904      9907      9909      9901      9904      9907      9910
      9902      9901      9904      9905      9902      9901      9904      9906
      9902      9901      9904      9907      9903      9901      9904      9905
      9903      9901      9904      9906      9903      9901      9904      9907
      9904      9907      9910      9911      9904      9907      9910      9912
      9904      9907      9910      9913      9905      9904      9907      9908
      9905      9904      9907      9909      9905      9904      9907      9910
      9906      9904      9907      9908      9906      9904      9907      9909
      9906      9904      9907      9910      9907      9910      9913      9914
      9907      9910      9913      9915      9907      9910      9913      9916
      9908      9907      9910      9911      9908      9907      9910      9912
      9908      9907      9910      9913      9909      9907      9910      9911
      9909      9907      9910      9912      9909      9907      9910      9913
      9910      9913      9916      9917      9910      9913      9916      9918
      9910      9913      9916      9919      9911      9910      9913      9914
      9911      9910      9913      9915      9911      9910      9913      9916
      9912      9910      9913      9914      9912      9910      9913      9915
      9912      9910      9913      9916      9914      9913      9916      9917
      9914      9913      9916      9918      9914      9913      9916      9919
      9915      9913      9916      9917      9915      9913      9916      9918
      9915      9913      9916      9919      9920      9924      9927      9928
      9920      9924      9927      9958      9920      9966      9963      9958
      9920      9966      9963      9964      9920      9966      9963      9965
      9921      9920      9922      9923      9921      9920      9924      9925
      9921      9920      9924      9926      9921      9920      9924      9927
      9921      9920      9966      9963      9921      9920      9966      9967
      9921      9920      9966      9968      9922      9920      9924      9925
      9922      9920      9924      9926      9922      9920      9924      9927
      9922      9920      9966      9963      9922      9920      9966      9967
      9922      9920      9966      9968      9923      9922      9920      9924
      9923      9922      9920      9966      9924      9920      9966      9963
      9924      9920      9966      9967      9924      9920      9966      9968
      9924      9927      9928      9929      9924      9927      9928      9930
      9924      9927      9958      9956      9924      9927      9958      9959
      9924      9927      9958      9963      9925      9924      9920      9966
      9925      9924      9927      9928      9925      9924      9927      9958
      9926      9924      9920      9966      9926      9924      9927      9928
      9926      9924      9927      9958      9927      9924      9920      9966
      9927      9928      9930      9931      9927      9928      9930      9932
      9927      9928      9930      9933      9927      9958      9956      9933
      9927      9958      9956      9953      9927      9958      9956      9957
      9927      9958      9959      9960      9927      9958      9959      9961
      9927      9958      9959      9962      9927      9958      9963      9964
      9927      9958      9963      9965      9927      9958      9963      9966
      9928      9927      9958      9956      9928      9927      9958      9959
      9928      9927      9958      9963      9928      9930      9933      9934
      9928      9930      9933      9935      9928      9930      9933      9956
      9929      9928      9927      9958      9929      9928      9930      9931
      9929      9928      9930      9932      9929      9928      9930      9933
      9930      9928      9927      9958      9930      9933      9935      9936
      9930      9933      9935      9937      9930      9933      9935      9945
      9930      9933      9956      9953      9930      9933      9956      9957
      9930      9933      9956      9958      9931      9930      9933      9934
      9931      9930      9933      9935      9931      9930      9933      9956
      9932      9930      9933      9934      9932      9930      9933      9935
      9932      9930      9933      9956      9933      9935      9937      9938
      9933      9935      9937      9939      9933      9935      9937      9940
      9933      9935      9945      9943      9933      9935      9945      9946
      9933      9935      9945      9950      9933      9956      9953      9950
      9933      9956      9953      9954      9933      9956      9953      9955
      9933      9956      9958      9959      9933      9956      9958      9963
      9934      9933      9935      9936      9934      9933      9935      9937
      9934      9933      9935      9945      9934      9933      9956      9953
      9934      9933      9956      9957      9934      9933      9956      9958
      9935      9933      9956      9953      9935      9933      9956      9957
      9935      9933      9956      9958      9935      9937      9940      9941
      9935      9937      9940      9942      9935      9937      9940      9943
      9935      9945      9943      9940      9935      9945      9943      9944
      9935      9945      9943      9969      9935      9945      9946      9947
      9935      9945      9946      9948      9935      9945      9946      9949
      9935      9945      9950      9951      9935      9945      9950      9952
      9935      9945      9950      9953      9936      9935      9933      9956
      9936      9935      9937      9938      9936      9935      9937      9939
      9936      9935      9937      9940      9936      9935      9945      9943
      9936      9935      9945      9946      9936      9935      9945      9950
      9937      9935      9933      9956      9937      9935      9945      9943
      9937      9935      9945      9946      9937      9935      9945      9950
      9937      9940      9943      9944      9937      9940      9943      9945
      9937      9940      9943      9969      9938      9937      9935      9945
      9938      9937      9940      9941      9938      9937      9940      9942
      9938      9937      9940      9943      9939      9937      9935      9945
      9939      9937      9940      9941      9939      9937      9940      9942
      9939      9937      9940      9943      9940      9937      9935      9945
      9940      9943      9945      9946      9940      9943      9945      9950
      9940      9943      9969      9970      9940      9943      9969      9971
      9940      9943      9969      9975      9941      9940      9943      9944
      9941      9940      9943      9945      9941      9940      9943      9969
      9942      9940      9943      9944      9942      9940      9943      9945
      9942      9940      9943      9969      9943      9945      9946      9947
      9943      9945      9946      9948      9943      9945      9946      9949
      9943      9945      9950      9951      9943      9945      9950      9952
      9943      9945      9950      9953      9943      9969      9971      9972
      9943      9969      9971      9973      9943      9969      9971      9974
      9943      9969      9975      9976      9943      9969      9975      9977
      9943      9969      9975      9978      9944      9943      9945      9946
      9944      9943      9945      9950      9944      9943      9969      9970
      9944      9943      9969      9971      9944      9943      9969      9975
      9945      9935      9933      9956      9945      9943      9969      9970
      9945      9943      9969      9971      9945      9943      9969      9975
      9945      9950      9953      9954      9945      9950      9953      9955
      9945      9950      9953      9956      9946      9945      9943      9969
      9946      9945      9950      9951      9946      9945      9950      9952
      9946      9945      9950      9953      9947      9946      9945      9950
      9948      9946      9945      9950      9949      9946      9945      9950
      9950      9945      9943      9969      9950      9953      9956      9957
      9950      9953      9956      9958      9951      9950      9953      9954
      9951      9950      9953      9955      9951      9950      9953      9956
      9952      9950      9953      9954      9952      9950      9953      9955
      9952      9950      9953      9956      9953      9956      9958      9959
      9953      9956      9958      9963      9954      9953      9956      9957
      9954      9953      9956      9958      9955      9953      9956      9957
      9955      9953      9956      9958      9956      9958      9959      9960
      9956      9958      9959      9961      9956      9958      9959      9962
      9956      9958      9963      9964      9956      9958      9963      9965
      9956      9958      9963      9966      9957      9956      9958      9959
      9957      9956      9958      9963      9958      9963      9966      9967
      9958      9963      9966      9968      9959      9958      9963      9964
      9959      9958      9963      9965      9959      9958      9963      9966
      9960      9959      9958      9963      9961      9959      9958      9963
      9962      9959      9958      9963      9964      9963      9966      9967
      9964      9963      9966      9968      9965      9963      9966      9967
      9965      9963      9966      9968      9969      9975      9978      9979
      9969      9975      9978      9980      9969      9975      9978      9981
      9970      9969      9971      9972      9970      9969      9971      9973
      9970      9969      9971      9974      9970      9969      9975      9976
      9970      9969      9975      9977      9970      9969      9975      9978
      9971      9969      9975      9976      9971      9969      9975      9977
      9971      9969      9975      9978      9972      9971      9969      9975
      9973      9971      9969      9975      9974      9971      9969      9975
      9975      9978      9981      9982      9975      9978      9981      9983
      9975      9978      9981      9984      9976      9975      9978      9979
      9976      9975      9978      9980      9976      9975      9978      9981
      9977      9975      9978      9979      9977      9975      9978      9980
      9977      9975      9978      9981      9978      9981      9984      9985
      9978      9981      9984      9986      9978      9981      9984      9990
      9979      9978      9981      9982      9979      9978      9981      9983
      9979      9978      9981      9984      9980      9978      9981      9982
      9980      9978      9981      9983      9980      9978      9981      9984
      9981      9984      9986      9987      9981      9984      9986      9988
      9981      9984      9986      9989      9981      9984      9990      9991
      9981      9984      9990      9992      9981      9984      9990      9993
      9982      9981      9984      9985      9982      9981      9984      9986
      9982      9981      9984      9990      9983      9981      9984      9985
      9983      9981      9984      9986      9983      9981      9984      9990
      9985      9984      9986      9987      9985      9984      9986      9988
      9985      9984      9986      9989      9985      9984      9990      9991
      9985      9984      9990      9992      9985      9984      9990      9993
      9986      9984      9990      9991      9986      9984      9990      9992
      9986      9984      9990      9993      9987      9986      9984      9990
      9988      9986      9984      9990      9989      9986      9984      9990
      9994      9998     10001     10002      9994      9998     10001     10003
      9994      9998     10001     10007      9995      9994      9998      9999
      9995      9994      9998     10000      9995      9994      9998     10001
      9996      9994      9998      9999      9996      9994      9998     10000
      9996      9994      9998     10001      9997      9994      9998      9999
      9997      9994      9998     10000      9997      9994      9998     10001
      9998     10001     10007     10004      9999      9998     10001     10002
      9999      9998     10001     10003      9999      9998     10001     10007
     10000      9998     10001     10002     10000      9998     10001     10003
     10000      9998     10001     10007     10001     10007     10004     10005
     10001     10007     10004     10006     10001     10007     10004     10008
     10002     10001     10007     10004     10003     10001     10007     10004
     10004     10008     10009     10010     10004     10008     10009     10011
     10004     10008     10009     10012     10005     10004     10008     10009
     10006     10004     10008     10009     10007     10004     10008     10009
     10008     10009     10012     10013     10008     10009     10012     10014
     10008     10009     10012     10020     10009     10012     10014     10015
     10009     10012     10020     10021     10009     10012     10020     10022
     10009     10012     10020     10023     10010     10009     10012     10013
     10010     10009     10012     10014     10010     10009     10012     10020
     10011     10009     10012     10013     10011     10009     10012     10014
     10011     10009     10012     10020     10012     10014     10015     10016
     10012     10014     10015     10017     10012     10020     10023     10024
     10013     10012     10014     10015     10013     10012     10020     10021
     10013     10012     10020     10022     10013     10012     10020     10023
     10014     10012     10020     10021     10014     10012     10020     10022
     10014     10012     10020     10023     10014     10015     10017     10018
     10014     10015     10017     10019     10014     10015     10017     10029
     10015     10014     10012     10020     10015     10017     10029     10030
     10015     10017     10029     10031     10015     10017     10029     10032
     10016     10015     10017     10018     10016     10015     10017     10019
     10016     10015     10017     10029     10017     10029     10032     10033
     10017     10029     10032     10034     10017     10029     10032     10035
     10018     10017     10029     10030     10018     10017     10029     10031
     10018     10017     10029     10032     10019     10017     10029     10030
     10019     10017     10029     10031     10019     10017     10029     10032
     10020     10023     10024     10025     10020     10023     10024     10026
     10021     10020     10023     10024     10022     10020     10023     10024
     10023     10024     10026     10027     10023     10024     10026     10028
     10023     10024     10026     10076     10024     10026     10076     10077
     10024     10026     10076     10078     10024     10026     10076     10079
     10025     10024     10026     10027     10025     10024     10026     10028
     10025     10024     10026     10076     10026     10076     10079     10080
     10026     10076     10079     10081     10026     10076     10079     10082
     10027     10026     10076     10077     10027     10026     10076     10078
     10027     10026     10076     10079     10028     10026     10076     10077
     10028     10026     10076     10078     10028     10026     10076     10079
     10029     10032     10035     10036     10029     10032     10035     10037
     10030     10029     10032     10033     10030     10029     10032     10034
     10030     10029     10032     10035     10031     10029     10032     10033
     10031     10029     10032     10034     10031     10029     10032     10035
     10032     10035     10037     10038     10032     10035     10037     10039
     10033     10032     10035     10036     10033     10032     10035     10037
     10034     10032     10035     10036     10034     10032     10035     10037
     10035     10037     10039     10040     10035     10037     10039     10041
     10035     10037     10039     10042     10036     10035     10037     10038
     10036     10035     10037     10039     10037     10039     10042     10043
     10037     10039     10042     10044     10038     10037     10039     10040
     10038     10037     10039     10041     10038     10037     10039     10042
     10039     10042     10044     10045     10039     10042     10044     10046
     10040     10039     10042     10043     10040     10039     10042     10044
     10041     10039     10042     10043     10041     10039     10042     10044
     10042     10044     10046     10047     10042     10044     10046     10048
     10042     10044     10046     10049     10043     10042     10044     10045
     10043     10042     10044     10046     10044     10046     10049     10050
     10044     10046     10049     10051     10045     10044     10046     10047
     10045     10044     10046     10048     10045     10044     10046     10049
     10046     10049     10051     10052     10046     10049     10051     10053
     10047     10046     10049     10050     10047     10046     10049     10051
     10048     10046     10049     10050     10048     10046     10049     10051
     10049     10051     10053     10054     10049     10051     10053     10055
     10049     10051     10053     10056     10050     10049     10051     10052
     10050     10049     10051     10053     10051     10053     10056     10057
     10051     10053     10056     10058     10052     10051     10053     10054
     10052     10051     10053     10055     10052     10051     10053     10056
     10053     10056     10058     10059     10053     10056     10058     10060
     10054     10053     10056     10057     10054     10053     10056     10058
     10055     10053     10056     10057     10055     10053     10056     10058
     10056     10058     10060     10061     10056     10058     10060     10062
     10056     10058     10060     10063     10057     10056     10058     10059
     10057     10056     10058     10060     10058     10060     10063     10064
     10058     10060     10063     10065     10058     10060     10063     10066
     10059     10058     10060     10061     10059     10058     10060     10062
     10059     10058     10060     10063     10060     10063     10066     10067
     10060     10063     10066     10068     10060     10063     10066     10069
     10061     10060     10063     10064     10061     10060     10063     10065
     10061     10060     10063     10066     10062     10060     10063     10064
     10062     10060     10063     10065     10062     10060     10063     10066
     10063     10066     10069     10070     10063     10066     10069     10071
     10063     10066     10069     10072     10064     10063     10066     10067
     10064     10063     10066     10068     10064     10063     10066     10069
     10065     10063     10066     10067     10065     10063     10066     10068
     10065     10063     10066     10069     10066     10069     10072     10073
     10066     10069     10072     10074     10066     10069     10072     10075
     10067     10066     10069     10070     10067     10066     10069     10071
     10067     10066     10069     10072     10068     10066     10069     10070
     10068     10066     10069     10071     10068     10066     10069     10072
     10070     10069     10072     10073     10070     10069     10072     10074
     10070     10069     10072     10075     10071     10069     10072     10073
     10071     10069     10072     10074     10071     10069     10072     10075
     10076     10079     10082     10083     10076     10079     10082     10084
     10076     10079     10082     10085     10077     10076     10079     10080
     10077     10076     10079     10081     10077     10076     10079     10082
     10078     10076     10079     10080     10078     10076     10079     10081
     10078     10076     10079     10082     10079     10082     10085     10086
     10079     10082     10085     10087     10079     10082     10085     10088
     10080     10079     10082     10083     10080     10079     10082     10084
     10080     10079     10082     10085     10081     10079     10082     10083
     10081     10079     10082     10084     10081     10079     10082     10085
     10082     10085     10088     10089     10082     10085     10088     10090
     10082     10085     10088     10091     10083     10082     10085     10086
     10083     10082     10085     10087     10083     10082     10085     10088
     10084     10082     10085     10086     10084     10082     10085     10087
     10084     10082     10085     10088     10085     10088     10091     10092
     10085     10088     10091     10093     10085     10088     10091     10094
     10086     10085     10088     10089     10086     10085     10088     10090
     10086     10085     10088     10091     10087     10085     10088     10089
     10087     10085     10088     10090     10087     10085     10088     10091
     10088     10091     10094     10095     10088     10091     10094     10096
     10088     10091     10094     10097     10089     10088     10091     10092
     10089     10088     10091     10093     10089     10088     10091     10094
     10090     10088     10091     10092     10090     10088     10091     10093
     10090     10088     10091     10094     10091     10094     10097     10098
     10091     10094     10097     10099     10091     10094     10097     10100
     10092     10091     10094     10095     10092     10091     10094     10096
     10092     10091     10094     10097     10093     10091     10094     10095
     10093     10091     10094     10096     10093     10091     10094     10097
     10094     10097     10100     10101     10094     10097     10100     10102
     10094     10097     10100     10103     10095     10094     10097     10098
     10095     10094     10097     10099     10095     10094     10097     10100
     10096     10094     10097     10098     10096     10094     10097     10099
     10096     10094     10097     10100     10097     10100     10103     10104
     10097     10100     10103     10105     10097     10100     10103     10106
     10098     10097     10100     10101     10098     10097     10100     10102
     10098     10097     10100     10103     10099     10097     10100     10101
     10099     10097     10100     10102     10099     10097     10100     10103
     10100     10103     10106     10107     10100     10103     10106     10108
     10100     10103     10106     10109     10101     10100     10103     10104
     10101     10100     10103     10105     10101     10100     10103     10106
     10102     10100     10103     10104     10102     10100     10103     10105
     10102     10100     10103     10106     10103     10106     10109     10110
     10103     10106     10109     10111     10103     10106     10109     10112
     10104     10103     10106     10107     10104     10103     10106     10108
     10104     10103     10106     10109     10105     10103     10106     10107
     10105     10103     10106     10108     10105     10103     10106     10109
     10106     10109     10112     10113     10106     10109     10112     10114
     10106     10109     10112     10115     10107     10106     10109     10110
     10107     10106     10109     10111     10107     10106     10109     10112
     10108     10106     10109     10110     10108     10106     10109     10111
     10108     10106     10109     10112     10109     10112     10115     10116
     10109     10112     10115     10117     10109     10112     10115     10118
     10110     10109     10112     10113     10110     10109     10112     10114
     10110     10109     10112     10115     10111     10109     10112     10113
     10111     10109     10112     10114     10111     10109     10112     10115
     10112     10115     10118     10119     10112     10115     10118     10120
     10112     10115     10118     10121     10113     10112     10115     10116
     10113     10112     10115     10117     10113     10112     10115     10118
     10114     10112     10115     10116     10114     10112     10115     10117
     10114     10112     10115     10118     10115     10118     10121     10122
     10115     10118     10121     10123     10115     10118     10121     10124
     10116     10115     10118     10119     10116     10115     10118     10120
     10116     10115     10118     10121     10117     10115     10118     10119
     10117     10115     10118     10120     10117     10115     10118     10121
     10119     10118     10121     10122     10119     10118     10121     10123
     10119     10118     10121     10124     10120     10118     10121     10122
     10120     10118     10121     10123     10120     10118     10121     10124
     10125     10129     10132     10133     10125     10129     10132     10163
     10125     10171     10168     10163     10125     10171     10168     10169
     10125     10171     10168     10170     10126     10125     10127     10128
     10126     10125     10129     10130     10126     10125     10129     10131
     10126     10125     10129     10132     10126     10125     10171     10168
     10126     10125     10171     10172     10126     10125     10171     10173
     10127     10125     10129     10130     10127     10125     10129     10131
     10127     10125     10129     10132     10127     10125     10171     10168
     10127     10125     10171     10172     10127     10125     10171     10173
     10128     10127     10125     10129     10128     10127     10125     10171
     10129     10125     10171     10168     10129     10125     10171     10172
     10129     10125     10171     10173     10129     10132     10133     10134
     10129     10132     10133     10135     10129     10132     10163     10161
     10129     10132     10163     10164     10129     10132     10163     10168
     10130     10129     10125     10171     10130     10129     10132     10133
     10130     10129     10132     10163     10131     10129     10125     10171
     10131     10129     10132     10133     10131     10129     10132     10163
     10132     10129     10125     10171     10132     10133     10135     10136
     10132     10133     10135     10137     10132     10133     10135     10138
     10132     10163     10161     10138     10132     10163     10161     10158
     10132     10163     10161     10162     10132     10163     10164     10165
     10132     10163     10164     10166     10132     10163     10164     10167
     10132     10163     10168     10169     10132     10163     10168     10170
     10132     10163     10168     10171     10133     10132     10163     10161
     10133     10132     10163     10164     10133     10132     10163     10168
     10133     10135     10138     10139     10133     10135     10138     10140
     10133     10135     10138     10161     10134     10133     10132     10163
     10134     10133     10135     10136     10134     10133     10135     10137
     10134     10133     10135     10138     10135     10133     10132     10163
     10135     10138     10140     10141     10135     10138     10140     10142
     10135     10138     10140     10150     10135     10138     10161     10158
     10135     10138     10161     10162     10135     10138     10161     10163
     10136     10135     10138     10139     10136     10135     10138     10140
     10136     10135     10138     10161     10137     10135     10138     10139
     10137     10135     10138     10140     10137     10135     10138     10161
     10138     10140     10142     10143     10138     10140     10142     10144
     10138     10140     10142     10145     10138     10140     10150     10148
     10138     10140     10150     10151     10138     10140     10150     10155
     10138     10161     10158     10155     10138     10161     10158     10159
     10138     10161     10158     10160     10138     10161     10163     10164
     10138     10161     10163     10168     10139     10138     10140     10141
     10139     10138     10140     10142     10139     10138     10140     10150
     10139     10138     10161     10158     10139     10138     10161     10162
     10139     10138     10161     10163     10140     10138     10161     10158
     10140     10138     10161     10162     10140     10138     10161     10163
     10140     10142     10145     10146     10140     10142     10145     10147
     10140     10142     10145     10148     10140     10150     10148     10145
     10140     10150     10148     10149     10140     10150     10148     10174
     10140     10150     10151     10152     10140     10150     10151     10153
     10140     10150     10151     10154     10140     10150     10155     10156
     10140     10150     10155     10157     10140     10150     10155     10158
     10141     10140     10138     10161     10141     10140     10142     10143
     10141     10140     10142     10144     10141     10140     10142     10145
     10141     10140     10150     10148     10141     10140     10150     10151
     10141     10140     10150     10155     10142     10140     10138     10161
     10142     10140     10150     10148     10142     10140     10150     10151
     10142     10140     10150     10155     10142     10145     10148     10149
     10142     10145     10148     10150     10142     10145     10148     10174
     10143     10142     10140     10150     10143     10142     10145     10146
     10143     10142     10145     10147     10143     10142     10145     10148
     10144     10142     10140     10150     10144     10142     10145     10146
     10144     10142     10145     10147     10144     10142     10145     10148
     10145     10142     10140     10150     10145     10148     10150     10151
     10145     10148     10150     10155     10145     10148     10174     10175
     10145     10148     10174     10176     10145     10148     10174     10180
     10146     10145     10148     10149     10146     10145     10148     10150
     10146     10145     10148     10174     10147     10145     10148     10149
     10147     10145     10148     10150     10147     10145     10148     10174
     10148     10150     10151     10152     10148     10150     10151     10153
     10148     10150     10151     10154     10148     10150     10155     10156
     10148     10150     10155     10157     10148     10150     10155     10158
     10148     10174     10176     10177     10148     10174     10176     10178
     10148     10174     10176     10179     10148     10174     10180     10181
     10148     10174     10180     10182     10148     10174     10180     10183
     10149     10148     10150     10151     10149     10148     10150     10155
     10149     10148     10174     10175     10149     10148     10174     10176
     10149     10148     10174     10180     10150     10140     10138     10161
     10150     10148     10174     10175     10150     10148     10174     10176
     10150     10148     10174     10180     10150     10155     10158     10159
     10150     10155     10158     10160     10150     10155     10158     10161
     10151     10150     10148     10174     10151     10150     10155     10156
     10151     10150     10155     10157     10151     10150     10155     10158
     10152     10151     10150     10155     10153     10151     10150     10155
     10154     10151     10150     10155     10155     10150     10148     10174
     10155     10158     10161     10162     10155     10158     10161     10163
     10156     10155     10158     10159     10156     10155     10158     10160
     10156     10155     10158     10161     10157     10155     10158     10159
     10157     10155     10158     10160     10157     10155     10158     10161
     10158     10161     10163     10164     10158     10161     10163     10168
     10159     10158     10161     10162     10159     10158     10161     10163
     10160     10158     10161     10162     10160     10158     10161     10163
     10161     10163     10164     10165     10161     10163     10164     10166
     10161     10163     10164     10167     10161     10163     10168     10169
     10161     10163     10168     10170     10161     10163     10168     10171
     10162     10161     10163     10164     10162     10161     10163     10168
     10163     10168     10171     10172     10163     10168     10171     10173
     10164     10163     10168     10169     10164     10163     10168     10170
     10164     10163     10168     10171     10165     10164     10163     10168
     10166     10164     10163     10168     10167     10164     10163     10168
     10169     10168     10171     10172     10169     10168     10171     10173
     10170     10168     10171     10172     10170     10168     10171     10173
     10174     10180     10183     10184     10174     10180     10183     10185
     10174     10180     10183     10186     10175     10174     10176     10177
     10175     10174     10176     10178     10175     10174     10176     10179
     10175     10174     10180     10181     10175     10174     10180     10182
     10175     10174     10180     10183     10176     10174     10180     10181
     10176     10174     10180     10182     10176     10174     10180     10183
     10177     10176     10174     10180     10178     10176     10174     10180
     10179     10176     10174     10180     10180     10183     10186     10187
     10180     10183     10186     10188     10180     10183     10186     10189
     10181     10180     10183     10184     10181     10180     10183     10185
     10181     10180     10183     10186     10182     10180     10183     10184
     10182     10180     10183     10185     10182     10180     10183     10186
     10183     10186     10189     10190     10183     10186     10189     10191
     10183     10186     10189     10195     10184     10183     10186     10187
     10184     10183     10186     10188     10184     10183     10186     10189
     10185     10183     10186     10187     10185     10183     10186     10188
     10185     10183     10186     10189     10186     10189     10191     10192
     10186     10189     10191     10193     10186     10189     10191     10194
     10186     10189     10195     10196     10186     10189     10195     10197
     10186     10189     10195     10198     10187     10186     10189     10190
     10187     10186     10189     10191     10187     10186     10189     10195
     10188     10186     10189     10190     10188     10186     10189     10191
     10188     10186     10189     10195     10190     10189     10191     10192
     10190     10189     10191     10193     10190     10189     10191     10194
     10190     10189     10195     10196     10190     10189     10195     10197
     10190     10189     10195     10198     10191     10189     10195     10196
     10191     10189     10195     10197     10191     10189     10195     10198
     10192     10191     10189     10195     10193     10191     10189     10195
     10194     10191     10189     10195     10199     10212     10215     10216
     10199     10212     10215     10217     10199     10212     10215     10221
     10200     10199     10204     10205     10200     10199     10204     10206
     10200     10199     10204     10207     10200     10199     10208     10209
     10200     10199     10208     10210     10200     10199     10208     10211
     10200     10199     10212     10213     10200     10199     10212     10214
     10200     10199     10212     10215     10201     10200     10199     10204
     10201     10200     10199     10208     10201     10200     10199     10212
     10202     10200     10199     10204     10202     10200     10199     10208
     10202     10200     10199     10212     10203     10200     10199     10204
     10203     10200     10199     10208     10203     10200     10199     10212
     10204     10199     10208     10209     10204     10199     10208     10210
     10204     10199     10208     10211     10204     10199     10212     10213
     10204     10199     10212     10214     10204     10199     10212     10215
     10205     10204     10199     10208     10205     10204     10199     10212
     10206     10204     10199     10208     10206     10204     10199     10212
     10207     10204     10199     10208     10207     10204     10199     10212
     10208     10199     10212     10213     10208     10199     10212     10214
     10208     10199     10212     10215     10209     10208     10199     10212
     10210     10208     10199     10212     10211     10208     10199     10212
     10212     10215     10221     10218     10213     10212     10215     10216
     10213     10212     10215     10217     10213     10212     10215     10221
     10214     10212     10215     10216     10214     10212     10215     10217
     10214     10212     10215     10221     10215     10221     10218     10219
     10215     10221     10218     10220     10215     10221     10218     10222
     10216     10215     10221     10218     10217     10215     10221     10218
     10218     10222     10223     10224     10218     10222     10223     10225
     10218     10222     10223     10226     10219     10218     10222     10223
     10220     10218     10222     10223     10221     10218     10222     10223
     10222     10223     10226     10227     10222     10223     10226     10228
     10222     10223     10226     10234     10223     10226     10228     10229
     10223     10226     10234     10235     10223     10226     10234     10236
     10223     10226     10234     10237     10224     10223     10226     10227
     10224     10223     10226     10228     10224     10223     10226     10234
     10225     10223     10226     10227     10225     10223     10226     10228
     10225     10223     10226     10234     10226     10228     10229     10230
     10226     10228     10229     10231     10226     10234     10237     10238
     10227     10226     10228     10229     10227     10226     10234     10235
     10227     10226     10234     10236     10227     10226     10234     10237
     10228     10226     10234     10235     10228     10226     10234     10236
     10228     10226     10234     10237     10228     10229     10231     10232
     10228     10229     10231     10233     10228     10229     10231     10243
     10229     10228     10226     10234     10229     10231     10243     10244
     10229     10231     10243     10245     10229     10231     10243     10246
     10230     10229     10231     10232     10230     10229     10231     10233
     10230     10229     10231     10243     10231     10243     10246     10247
     10231     10243     10246     10248     10231     10243     10246     10249
     10232     10231     10243     10244     10232     10231     10243     10245
     10232     10231     10243     10246     10233     10231     10243     10244
     10233     10231     10243     10245     10233     10231     10243     10246
     10234     10237     10238     10239     10234     10237     10238     10240
     10235     10234     10237     10238     10236     10234     10237     10238
     10237     10238     10240     10241     10237     10238     10240     10242
     10237     10238     10240     10288     10238     10240     10288     10289
     10238     10240     10288     10290     10238     10240     10288     10291
     10239     10238     10240     10241     10239     10238     10240     10242
     10239     10238     10240     10288     10240     10288     10291     10292
     10240     10288     10291     10293     10240     10288     10291     10294
     10241     10240     10288     10289     10241     10240     10288     10290
     10241     10240     10288     10291     10242     10240     10288     10289
     10242     10240     10288     10290     10242     10240     10288     10291
     10243     10246     10249     10250     10243     10246     10249     10251
     10243     10246     10249     10252     10244     10243     10246     10247
     10244     10243     10246     10248     10244     10243     10246     10249
     10245     10243     10246     10247     10245     10243     10246     10248
     10245     10243     10246     10249     10246     10249     10252     10253
     10246     10249     10252     10254     10246     10249     10252     10255
     10247     10246     10249     10250     10247     10246     10249     10251
     10247     10246     10249     10252     10248     10246     10249     10250
     10248     10246     10249     10251     10248     10246     10249     10252
     10249     10252     10255     10256     10249     10252     10255     10257
     10249     10252     10255     10258     10250     10249     10252     10253
     10250     10249     10252     10254     10250     10249     10252     10255
     10251     10249     10252     10253     10251     10249     10252     10254
     10251     10249     10252     10255     10252     10255     10258     10259
     10252     10255     10258     10260     10252     10255     10258     10261
     10253     10252     10255     10256     10253     10252     10255     10257
     10253     10252     10255     10258     10254     10252     10255     10256
     10254     10252     10255     10257     10254     10252     10255     10258
     10255     10258     10261     10262     10255     10258     10261     10263
     10256     10255     10258     10259     10256     10255     10258     10260
     10256     10255     10258     10261     10257     10255     10258     10259
     10257     10255     10258     10260     10257     10255     10258     10261
     10258     10261     10263     10264     10258     10261     10263     10265
     10259     10258     10261     10262     10259     10258     10261     10263
     10260     10258     10261     10262     10260     10258     10261     10263
     10261     10263     10265     10266     10261     10263     10265     10267
     10261     10263     10265     10268     10262     10261     10263     10264
     10262     10261     10263     10265     10263     10265     10268     10269
     10263     10265     10268     10270     10264     10263     10265     10266
     10264     10263     10265     10267     10264     10263     10265     10268
     10265     10268     10270     10271     10265     10268     10270     10272
     10266     10265     10268     10269     10266     10265     10268     10270
     10267     10265     10268     10269     10267     10265     10268     10270
     10268     10270     10272     10273     10268     10270     10272     10274
     10268     10270     10272     10275     10269     10268     10270     10271
     10269     10268     10270     10272     10270     10272     10275     10276
     10270     10272     10275     10277     10270     10272     10275     10278
     10271     10270     10272     10273     10271     10270     10272     10274
     10271     10270     10272     10275     10272     10275     10278     10279
     10272     10275     10278     10280     10272     10275     10278     10281
     10273     10272     10275     10276     10273     10272     10275     10277
     10273     10272     10275     10278     10274     10272     10275     10276
     10274     10272     10275     10277     10274     10272     10275     10278
     10275     10278     10281     10282     10275     10278     10281     10283
     10275     10278     10281     10284     10276     10275     10278     10279
     10276     10275     10278     10280     10276     10275     10278     10281
     10277     10275     10278     10279     10277     10275     10278     10280
     10277     10275     10278     10281     10278     10281     10284     10285
     10278     10281     10284     10286     10278     10281     10284     10287
     10279     10278     10281     10282     10279     10278     10281     10283
     10279     10278     10281     10284     10280     10278     10281     10282
     10280     10278     10281     10283     10280     10278     10281     10284
     10282     10281     10284     10285     10282     10281     10284     10286
     10282     10281     10284     10287     10283     10281     10284     10285
     10283     10281     10284     10286     10283     10281     10284     10287
     10288     10291     10294     10295     10288     10291     10294     10296
     10288     10291     10294     10297     10289     10288     10291     10292
     10289     10288     10291     10293     10289     10288     10291     10294
     10290     10288     10291     10292     10290     10288     10291     10293
     10290     10288     10291     10294     10291     10294     10297     10298
     10291     10294     10297     10299     10291     10294     10297     10300
     10292     10291     10294     10295     10292     10291     10294     10296
     10292     10291     10294     10297     10293     10291     10294     10295
     10293     10291     10294     10296     10293     10291     10294     10297
     10294     10297     10300     10301     10294     10297     10300     10302
     10294     10297     10300     10303     10295     10294     10297     10298
     10295     10294     10297     10299     10295     10294     10297     10300
     10296     10294     10297     10298     10296     10294     10297     10299
     10296     10294     10297     10300     10297     10300     10303     10304
     10297     10300     10303     10305     10297     10300     10303     10306
     10298     10297     10300     10301     10298     10297     10300     10302
     10298     10297     10300     10303     10299     10297     10300     10301
     10299     10297     10300     10302     10299     10297     10300     10303
     10300     10303     10306     10307     10300     10303     10306     10308
     10300     10303     10306     10309     10301     10300     10303     10304
     10301     10300     10303     10305     10301     10300     10303     10306
     10302     10300     10303     10304     10302     10300     10303     10305
     10302     10300     10303     10306     10303     10306     10309     10310
     10303     10306     10309     10311     10303     10306     10309     10312
     10304     10303     10306     10307     10304     10303     10306     10308
     10304     10303     10306     10309     10305     10303     10306     10307
     10305     10303     10306     10308     10305     10303     10306     10309
     10306     10309     10312     10313     10306     10309     10312     10314
     10306     10309     10312     10315     10307     10306     10309     10310
     10307     10306     10309     10311     10307     10306     10309     10312
     10308     10306     10309     10310     10308     10306     10309     10311
     10308     10306     10309     10312     10309     10312     10315     10316
     10309     10312     10315     10317     10309     10312     10315     10318
     10310     10309     10312     10313     10310     10309     10312     10314
     10310     10309     10312     10315     10311     10309     10312     10313
     10311     10309     10312     10314     10311     10309     10312     10315
     10312     10315     10318     10319     10312     10315     10318     10320
     10312     10315     10318     10321     10313     10312     10315     10316
     10313     10312     10315     10317     10313     10312     10315     10318
     10314     10312     10315     10316     10314     10312     10315     10317
     10314     10312     10315     10318     10315     10318     10321     10322
     10315     10318     10321     10323     10315     10318     10321     10324
     10316     10315     10318     10319     10316     10315     10318     10320
     10316     10315     10318     10321     10317     10315     10318     10319
     10317     10315     10318     10320     10317     10315     10318     10321
     10318     10321     10324     10325     10318     10321     10324     10326
     10318     10321     10324     10327     10319     10318     10321     10322
     10319     10318     10321     10323     10319     10318     10321     10324
     10320     10318     10321     10322     10320     10318     10321     10323
     10320     10318     10321     10324     10321     10324     10327     10328
     10321     10324     10327     10329     10321     10324     10327     10330
     10322     10321     10324     10325     10322     10321     10324     10326
     10322     10321     10324     10327     10323     10321     10324     10325
     10323     10321     10324     10326     10323     10321     10324     10327
     10324     10327     10330     10331     10324     10327     10330     10332
     10324     10327     10330     10333     10325     10324     10327     10328
     10325     10324     10327     10329     10325     10324     10327     10330
     10326     10324     10327     10328     10326     10324     10327     10329
     10326     10324     10327     10330     10327     10330     10333     10334
     10327     10330     10333     10335     10327     10330     10333     10336
     10328     10327     10330     10331     10328     10327     10330     10332
     10328     10327     10330     10333     10329     10327     10330     10331
     10329     10327     10330     10332     10329     10327     10330     10333
     10331     10330     10333     10334     10331     10330     10333     10335
     10331     10330     10333     10336     10332     10330     10333     10334
     10332     10330     10333     10335     10332     10330     10333     10336
     10337     10338     10353     10354     10337     10338     10353     10355
     10337     10338     10353     10359     10338     10337     10341     10342
     10338     10337     10341     10343     10338     10337     10341     10344
     10338     10337     10345     10346     10338     10337     10345     10347
     10338     10337     10345     10348     10338     10337     10349     10350
     10338     10337     10349     10351     10338     10337     10349     10352
     10338     10353     10359     10356     10339     10338     10337     10341
     10339     10338     10337     10345     10339     10338     10337     10349
     10339     10338     10353     10354     10339     10338     10353     10355
     10339     10338     10353     10359     10340     10338     10337     10341
     10340     10338     10337     10345     10340     10338     10337     10349
     10340     10338     10353     10354     10340     10338     10353     10355
     10340     10338     10353     10359     10341     10337     10338     10353
     10341     10337     10345     10346     10341     10337     10345     10347
     10341     10337     10345     10348     10341     10337     10349     10350
     10341     10337     10349     10351     10341     10337     10349     10352
     10342     10341     10337     10345     10342     10341     10337     10349
     10343     10341     10337     10345     10343     10341     10337     10349
     10344     10341     10337     10345     10344     10341     10337     10349
     10345     10337     10338     10353     10345     10337     10349     10350
     10345     10337     10349     10351     10345     10337     10349     10352
     10346     10345     10337     10349     10347     10345     10337     10349
     10348     10345     10337     10349     10349     10337     10338     10353
     10353     10359     10356     10357     10353     10359     10356     10358
     10353     10359     10356     10360     10354     10353     10359     10356
     10355     10353     10359     10356     10356     10360     10361     10362
     10356     10360     10361     10363     10356     10360     10361     10364
     10357     10356     10360     10361     10358     10356     10360     10361
     10359     10356     10360     10361     10360     10361     10364     10365
     10360     10361     10364     10366     10360     10361     10364     10372
     10361     10364     10366     10367     10361     10364     10372     10373
     10361     10364     10372     10374     10361     10364     10372     10375
     10362     10361     10364     10365     10362     10361     10364     10366
     10362     10361     10364     10372     10363     10361     10364     10365
     10363     10361     10364     10366     10363     10361     10364     10372
     10364     10366     10367     10368     10364     10366     10367     10369
     10364     10372     10375     10376     10365     10364     10366     10367
     10365     10364     10372     10373     10365     10364     10372     10374
     10365     10364     10372     10375     10366     10364     10372     10373
     10366     10364     10372     10374     10366     10364     10372     10375
     10366     10367     10369     10370     10366     10367     10369     10371
     10366     10367     10369     10381     10367     10366     10364     10372
     10367     10369     10381     10382     10367     10369     10381     10383
     10367     10369     10381     10384     10368     10367     10369     10370
     10368     10367     10369     10371     10368     10367     10369     10381
     10369     10381     10384     10385     10369     10381     10384     10386
     10369     10381     10384     10387     10370     10369     10381     10382
     10370     10369     10381     10383     10370     10369     10381     10384
     10371     10369     10381     10382     10371     10369     10381     10383
     10371     10369     10381     10384     10372     10375     10376     10377
     10372     10375     10376     10378     10373     10372     10375     10376
     10374     10372     10375     10376     10375     10376     10378     10379
     10375     10376     10378     10380     10375     10376     10378     10428
     10376     10378     10428     10429     10376     10378     10428     10430
     10376     10378     10428     10431     10377     10376     10378     10379
     10377     10376     10378     10380     10377     10376     10378     10428
     10378     10428     10431     10432     10378     10428     10431     10433
     10378     10428     10431     10434     10379     10378     10428     10429
     10379     10378     10428     10430     10379     10378     10428     10431
     10380     10378     10428     10429     10380     10378     10428     10430
     10380     10378     10428     10431     10381     10384     10387     10388
     10381     10384     10387     10389     10382     10381     10384     10385
     10382     10381     10384     10386     10382     10381     10384     10387
     10383     10381     10384     10385     10383     10381     10384     10386
     10383     10381     10384     10387     10384     10387     10389     10390
     10384     10387     10389     10391     10385     10384     10387     10388
     10385     10384     10387     10389     10386     10384     10387     10388
     10386     10384     10387     10389     10387     10389     10391     10392
     10387     10389     10391     10393     10387     10389     10391     10394
     10388     10387     10389     10390     10388     10387     10389     10391
     10389     10391     10394     10395     10389     10391     10394     10396
     10390     10389     10391     10392     10390     10389     10391     10393
     10390     10389     10391     10394     10391     10394     10396     10397
     10391     10394     10396     10398     10392     10391     10394     10395
     10392     10391     10394     10396     10393     10391     10394     10395
     10393     10391     10394     10396     10394     10396     10398     10399
     10394     10396     10398     10400     10394     10396     10398     10401
     10395     10394     10396     10397     10395     10394     10396     10398
     10396     10398     10401     10402     10396     10398     10401     10403
     10397     10396     10398     10399     10397     10396     10398     10400
     10397     10396     10398     10401     10398     10401     10403     10404
     10398     10401     10403     10405     10399     10398     10401     10402
     10399     10398     10401     10403     10400     10398     10401     10402
     10400     10398     10401     10403     10401     10403     10405     10406
     10401     10403     10405     10407     10401     10403     10405     10408
     10402     10401     10403     10404     10402     10401     10403     10405
     10403     10405     10408     10409     10403     10405     10408     10410
     10404     10403     10405     10406     10404     10403     10405     10407
     10404     10403     10405     10408     10405     10408     10410     10411
     10405     10408     10410     10412     10406     10405     10408     10409
     10406     10405     10408     10410     10407     10405     10408     10409
     10407     10405     10408     10410     10408     10410     10412     10413
     10408     10410     10412     10414     10408     10410     10412     10415
     10409     10408     10410     10411     10409     10408     10410     10412
     10410     10412     10415     10416     10410     10412     10415     10417
     10410     10412     10415     10418     10411     10410     10412     10413
     10411     10410     10412     10414     10411     10410     10412     10415
     10412     10415     10418     10419     10412     10415     10418     10420
     10412     10415     10418     10421     10413     10412     10415     10416
     10413     10412     10415     10417     10413     10412     10415     10418
     10414     10412     10415     10416     10414     10412     10415     10417
     10414     10412     10415     10418     10415     10418     10421     10422
     10415     10418     10421     10423     10415     10418     10421     10424
     10416     10415     10418     10419     10416     10415     10418     10420
     10416     10415     10418     10421     10417     10415     10418     10419
     10417     10415     10418     10420     10417     10415     10418     10421
     10418     10421     10424     10425     10418     10421     10424     10426
     10418     10421     10424     10427     10419     10418     10421     10422
     10419     10418     10421     10423     10419     10418     10421     10424
     10420     10418     10421     10422     10420     10418     10421     10423
     10420     10418     10421     10424     10422     10421     10424     10425
     10422     10421     10424     10426     10422     10421     10424     10427
     10423     10421     10424     10425     10423     10421     10424     10426
     10423     10421     10424     10427     10428     10431     10434     10435
     10428     10431     10434     10436     10428     10431     10434     10437
     10429     10428     10431     10432     10429     10428     10431     10433
     10429     10428     10431     10434     10430     10428     10431     10432
     10430     10428     10431     10433     10430     10428     10431     10434
     10431     10434     10437     10438     10431     10434     10437     10439
     10431     10434     10437     10440     10432     10431     10434     10435
     10432     10431     10434     10436     10432     10431     10434     10437
     10433     10431     10434     10435     10433     10431     10434     10436
     10433     10431     10434     10437     10434     10437     10440     10441
     10434     10437     10440     10442     10434     10437     10440     10443
     10435     10434     10437     10438     10435     10434     10437     10439
     10435     10434     10437     10440     10436     10434     10437     10438
     10436     10434     10437     10439     10436     10434     10437     10440
     10437     10440     10443     10444     10437     10440     10443     10445
     10437     10440     10443     10446     10438     10437     10440     10441
     10438     10437     10440     10442     10438     10437     10440     10443
     10439     10437     10440     10441     10439     10437     10440     10442
     10439     10437     10440     10443     10440     10443     10446     10447
     10440     10443     10446     10448     10440     10443     10446     10449
     10441     10440     10443     10444     10441     10440     10443     10445
     10441     10440     10443     10446     10442     10440     10443     10444
     10442     10440     10443     10445     10442     10440     10443     10446
     10443     10446     10449     10450     10443     10446     10449     10451
     10443     10446     10449     10452     10444     10443     10446     10447
     10444     10443     10446     10448     10444     10443     10446     10449
     10445     10443     10446     10447     10445     10443     10446     10448
     10445     10443     10446     10449     10446     10449     10452     10453
     10446     10449     10452     10454     10446     10449     10452     10455
     10447     10446     10449     10450     10447     10446     10449     10451
     10447     10446     10449     10452     10448     10446     10449     10450
     10448     10446     10449     10451     10448     10446     10449     10452
     10449     10452     10455     10456     10449     10452     10455     10457
     10449     10452     10455     10458     10450     10449     10452     10453
     10450     10449     10452     10454     10450     10449     10452     10455
     10451     10449     10452     10453     10451     10449     10452     10454
     10451     10449     10452     10455     10452     10455     10458     10459
     10452     10455     10458     10460     10452     10455     10458     10461
     10453     10452     10455     10456     10453     10452     10455     10457
     10453     10452     10455     10458     10454     10452     10455     10456
     10454     10452     10455     10457     10454     10452     10455     10458
     10455     10458     10461     10462     10455     10458     10461     10463
     10455     10458     10461     10464     10456     10455     10458     10459
     10456     10455     10458     10460     10456     10455     10458     10461
     10457     10455     10458     10459     10457     10455     10458     10460
     10457     10455     10458     10461     10458     10461     10464     10465
     10458     10461     10464     10466     10458     10461     10464     10467
     10459     10458     10461     10462     10459     10458     10461     10463
     10459     10458     10461     10464     10460     10458     10461     10462
     10460     10458     10461     10463     10460     10458     10461     10464
     10461     10464     10467     10468     10461     10464     10467     10469
     10461     10464     10467     10470     10462     10461     10464     10465
     10462     10461     10464     10466     10462     10461     10464     10467
     10463     10461     10464     10465     10463     10461     10464     10466
     10463     10461     10464     10467     10464     10467     10470     10471
     10464     10467     10470     10472     10464     10467     10470     10473
     10465     10464     10467     10468     10465     10464     10467     10469
     10465     10464     10467     10470     10466     10464     10467     10468
     10466     10464     10467     10469     10466     10464     10467     10470
     10467     10470     10473     10474     10467     10470     10473     10475
     10467     10470     10473     10476     10468     10467     10470     10471
     10468     10467     10470     10472     10468     10467     10470     10473
     10469     10467     10470     10471     10469     10467     10470     10472
     10469     10467     10470     10473     10471     10470     10473     10474
     10471     10470     10473     10475     10471     10470     10473     10476
     10472     10470     10473     10474     10472     10470     10473     10475
     10472     10470     10473     10476     10477     10481     10484     10485
     10477     10481     10484     10515     10477     10523     10520     10515
     10477     10523     10520     10521     10477     10523     10520     10522
     10478     10477     10479     10480     10478     10477     10481     10482
     10478     10477     10481     10483     10478     10477     10481     10484
     10478     10477     10523     10520     10478     10477     10523     10524
     10478     10477     10523     10525     10479     10477     10481     10482
     10479     10477     10481     10483     10479     10477     10481     10484
     10479     10477     10523     10520     10479     10477     10523     10524
     10479     10477     10523     10525     10480     10479     10477     10481
     10480     10479     10477     10523     10481     10477     10523     10520
     10481     10477     10523     10524     10481     10477     10523     10525
     10481     10484     10485     10486     10481     10484     10485     10487
     10481     10484     10515     10513     10481     10484     10515     10516
     10481     10484     10515     10520     10482     10481     10477     10523
     10482     10481     10484     10485     10482     10481     10484     10515
     10483     10481     10477     10523     10483     10481     10484     10485
     10483     10481     10484     10515     10484     10481     10477     10523
     10484     10485     10487     10488     10484     10485     10487     10489
     10484     10485     10487     10490     10484     10515     10513     10490
     10484     10515     10513     10510     10484     10515     10513     10514
     10484     10515     10516     10517     10484     10515     10516     10518
     10484     10515     10516     10519     10484     10515     10520     10521
     10484     10515     10520     10522     10484     10515     10520     10523
     10485     10484     10515     10513     10485     10484     10515     10516
     10485     10484     10515     10520     10485     10487     10490     10491
     10485     10487     10490     10492     10485     10487     10490     10513
     10486     10485     10484     10515     10486     10485     10487     10488
     10486     10485     10487     10489     10486     10485     10487     10490
     10487     10485     10484     10515     10487     10490     10492     10493
     10487     10490     10492     10494     10487     10490     10492     10502
     10487     10490     10513     10510     10487     10490     10513     10514
     10487     10490     10513     10515     10488     10487     10490     10491
     10488     10487     10490     10492     10488     10487     10490     10513
     10489     10487     10490     10491     10489     10487     10490     10492
     10489     10487     10490     10513     10490     10492     10494     10495
     10490     10492     10494     10496     10490     10492     10494     10497
     10490     10492     10502     10500     10490     10492     10502     10503
     10490     10492     10502     10507     10490     10513     10510     10507
     10490     10513     10510     10511     10490     10513     10510     10512
     10490     10513     10515     10516     10490     10513     10515     10520
     10491     10490     10492     10493     10491     10490     10492     10494
     10491     10490     10492     10502     10491     10490     10513     10510
     10491     10490     10513     10514     10491     10490     10513     10515
     10492     10490     10513     10510     10492     10490     10513     10514
     10492     10490     10513     10515     10492     10494     10497     10498
     10492     10494     10497     10499     10492     10494     10497     10500
     10492     10502     10500     10497     10492     10502     10500     10501
     10492     10502     10500     10526     10492     10502     10503     10504
     10492     10502     10503     10505     10492     10502     10503     10506
     10492     10502     10507     10508     10492     10502     10507     10509
     10492     10502     10507     10510     10493     10492     10490     10513
     10493     10492     10494     10495     10493     10492     10494     10496
     10493     10492     10494     10497     10493     10492     10502     10500
     10493     10492     10502     10503     10493     10492     10502     10507
     10494     10492     10490     10513     10494     10492     10502     10500
     10494     10492     10502     10503     10494     10492     10502     10507
     10494     10497     10500     10501     10494     10497     10500     10502
     10494     10497     10500     10526     10495     10494     10492     10502
     10495     10494     10497     10498     10495     10494     10497     10499
     10495     10494     10497     10500     10496     10494     10492     10502
     10496     10494     10497     10498     10496     10494     10497     10499
     10496     10494     10497     10500     10497     10494     10492     10502
     10497     10500     10502     10503     10497     10500     10502     10507
     10497     10500     10526     10527     10497     10500     10526     10528
     10497     10500     10526     10532     10498     10497     10500     10501
     10498     10497     10500     10502     10498     10497     10500     10526
     10499     10497     10500     10501     10499     10497     10500     10502
     10499     10497     10500     10526     10500     10502     10503     10504
     10500     10502     10503     10505     10500     10502     10503     10506
     10500     10502     10507     10508     10500     10502     10507     10509
     10500     10502     10507     10510     10500     10526     10528     10529
     10500     10526     10528     10530     10500     10526     10528     10531
     10500     10526     10532     10533     10500     10526     10532     10534
     10500     10526     10532     10535     10501     10500     10502     10503
     10501     10500     10502     10507     10501     10500     10526     10527
     10501     10500     10526     10528     10501     10500     10526     10532
     10502     10492     10490     10513     10502     10500     10526     10527
     10502     10500     10526     10528     10502     10500     10526     10532
     10502     10507     10510     10511     10502     10507     10510     10512
     10502     10507     10510     10513     10503     10502     10500     10526
     10503     10502     10507     10508     10503     10502     10507     10509
     10503     10502     10507     10510     10504     10503     10502     10507
     10505     10503     10502     10507     10506     10503     10502     10507
     10507     10502     10500     10526     10507     10510     10513     10514
     10507     10510     10513     10515     10508     10507     10510     10511
     10508     10507     10510     10512     10508     10507     10510     10513
     10509     10507     10510     10511     10509     10507     10510     10512
     10509     10507     10510     10513     10510     10513     10515     10516
     10510     10513     10515     10520     10511     10510     10513     10514
     10511     10510     10513     10515     10512     10510     10513     10514
     10512     10510     10513     10515     10513     10515     10516     10517
     10513     10515     10516     10518     10513     10515     10516     10519
     10513     10515     10520     10521     10513     10515     10520     10522
     10513     10515     10520     10523     10514     10513     10515     10516
     10514     10513     10515     10520     10515     10520     10523     10524
     10515     10520     10523     10525     10516     10515     10520     10521
     10516     10515     10520     10522     10516     10515     10520     10523
     10517     10516     10515     10520     10518     10516     10515     10520
     10519     10516     10515     10520     10521     10520     10523     10524
     10521     10520     10523     10525     10522     10520     10523     10524
     10522     10520     10523     10525     10526     10532     10535     10536
     10526     10532     10535     10537     10526     10532     10535     10538
     10527     10526     10528     10529     10527     10526     10528     10530
     10527     10526     10528     10531     10527     10526     10532     10533
     10527     10526     10532     10534     10527     10526     10532     10535
     10528     10526     10532     10533     10528     10526     10532     10534
     10528     10526     10532     10535     10529     10528     10526     10532
     10530     10528     10526     10532     10531     10528     10526     10532
     10532     10535     10538     10539     10532     10535     10538     10540
     10532     10535     10538     10541     10533     10532     10535     10536
     10533     10532     10535     10537     10533     10532     10535     10538
     10534     10532     10535     10536     10534     10532     10535     10537
     10534     10532     10535     10538     10535     10538     10541     10542
     10535     10538     10541     10543     10535     10538     10541     10547
     10536     10535     10538     10539     10536     10535     10538     10540
     10536     10535     10538     10541     10537     10535     10538     10539
     10537     10535     10538     10540     10537     10535     10538     10541
     10538     10541     10543     10544     10538     10541     10543     10545
     10538     10541     10543     10546     10538     10541     10547     10548
     10538     10541     10547     10549     10538     10541     10547     10550
     10539     10538     10541     10542     10539     10538     10541     10543
     10539     10538     10541     10547     10540     10538     10541     10542
     10540     10538     10541     10543     10540     10538     10541     10547
     10542     10541     10543     10544     10542     10541     10543     10545
     10542     10541     10543     10546     10542     10541     10547     10548
     10542     10541     10547     10549     10542     10541     10547     10550
     10543     10541     10547     10548     10543     10541     10547     10549
     10543     10541     10547     10550     10544     10543     10541     10547
     10545     10543     10541     10547     10546     10543     10541     10547
     10551     10555     10558     10559     10551     10555     10558     10560
     10551     10555     10558     10564     10552     10551     10555     10556
     10552     10551     10555     10557     10552     10551     10555     10558
     10553     10551     10555     10556     10553     10551     10555     10557
     10553     10551     10555     10558     10554     10551     10555     10556
     10554     10551     10555     10557     10554     10551     10555     10558
     10555     10558     10564     10561     10556     10555     10558     10559
     10556     10555     10558     10560     10556     10555     10558     10564
     10557     10555     10558     10559     10557     10555     10558     10560
     10557     10555     10558     10564     10558     10564     10561     10562
     10558     10564     10561     10563     10558     10564     10561     10565
     10559     10558     10564     10561     10560     10558     10564     10561
     10561     10565     10566     10567     10561     10565     10566     10568
     10561     10565     10566     10569     10562     10561     10565     10566
     10563     10561     10565     10566     10564     10561     10565     10566
     10565     10566     10569     10570     10565     10566     10569     10571
     10565     10566     10569     10577     10566     10569     10571     10572
     10566     10569     10577     10578     10566     10569     10577     10579
     10566     10569     10577     10580     10567     10566     10569     10570
     10567     10566     10569     10571     10567     10566     10569     10577
     10568     10566     10569     10570     10568     10566     10569     10571
     10568     10566     10569     10577     10569     10571     10572     10573
     10569     10571     10572     10574     10569     10577     10580     10581
     10570     10569     10571     10572     10570     10569     10577     10578
     10570     10569     10577     10579     10570     10569     10577     10580
     10571     10569     10577     10578     10571     10569     10577     10579
     10571     10569     10577     10580     10571     10572     10574     10575
     10571     10572     10574     10576     10571     10572     10574     10586
     10572     10571     10569     10577     10572     10574     10586     10587
     10572     10574     10586     10588     10572     10574     10586     10589
     10573     10572     10574     10575     10573     10572     10574     10576
     10573     10572     10574     10586     10574     10586     10589     10590
     10574     10586     10589     10591     10574     10586     10589     10592
     10575     10574     10586     10587     10575     10574     10586     10588
     10575     10574     10586     10589     10576     10574     10586     10587
     10576     10574     10586     10588     10576     10574     10586     10589
     10577     10580     10581     10582     10577     10580     10581     10583
     10578     10577     10580     10581     10579     10577     10580     10581
     10580     10581     10583     10584     10580     10581     10583     10585
     10580     10581     10583     10633     10581     10583     10633     10634
     10581     10583     10633     10635     10581     10583     10633     10636
     10582     10581     10583     10584     10582     10581     10583     10585
     10582     10581     10583     10633     10583     10633     10636     10637
     10583     10633     10636     10638     10583     10633     10636     10639
     10584     10583     10633     10634     10584     10583     10633     10635
     10584     10583     10633     10636     10585     10583     10633     10634
     10585     10583     10633     10635     10585     10583     10633     10636
     10586     10589     10592     10593     10586     10589     10592     10594
     10587     10586     10589     10590     10587     10586     10589     10591
     10587     10586     10589     10592     10588     10586     10589     10590
     10588     10586     10589     10591     10588     10586     10589     10592
     10589     10592     10594     10595     10589     10592     10594     10596
     10590     10589     10592     10593     10590     10589     10592     10594
     10591     10589     10592     10593     10591     10589     10592     10594
     10592     10594     10596     10597     10592     10594     10596     10598
     10592     10594     10596     10599     10593     10592     10594     10595
     10593     10592     10594     10596     10594     10596     10599     10600
     10594     10596     10599     10601     10595     10594     10596     10597
     10595     10594     10596     10598     10595     10594     10596     10599
     10596     10599     10601     10602     10596     10599     10601     10603
     10597     10596     10599     10600     10597     10596     10599     10601
     10598     10596     10599     10600     10598     10596     10599     10601
     10599     10601     10603     10604     10599     10601     10603     10605
     10599     10601     10603     10606     10600     10599     10601     10602
     10600     10599     10601     10603     10601     10603     10606     10607
     10601     10603     10606     10608     10602     10601     10603     10604
     10602     10601     10603     10605     10602     10601     10603     10606
     10603     10606     10608     10609     10603     10606     10608     10610
     10604     10603     10606     10607     10604     10603     10606     10608
     10605     10603     10606     10607     10605     10603     10606     10608
     10606     10608     10610     10611     10606     10608     10610     10612
     10606     10608     10610     10613     10607     10606     10608     10609
     10607     10606     10608     10610     10608     10610     10613     10614
     10608     10610     10613     10615     10609     10608     10610     10611
     10609     10608     10610     10612     10609     10608     10610     10613
     10610     10613     10615     10616     10610     10613     10615     10617
     10611     10610     10613     10614     10611     10610     10613     10615
     10612     10610     10613     10614     10612     10610     10613     10615
     10613     10615     10617     10618     10613     10615     10617     10619
     10613     10615     10617     10620     10614     10613     10615     10616
     10614     10613     10615     10617     10615     10617     10620     10621
     10615     10617     10620     10622     10615     10617     10620     10623
     10616     10615     10617     10618     10616     10615     10617     10619
     10616     10615     10617     10620     10617     10620     10623     10624
     10617     10620     10623     10625     10617     10620     10623     10626
     10618     10617     10620     10621     10618     10617     10620     10622
     10618     10617     10620     10623     10619     10617     10620     10621
     10619     10617     10620     10622     10619     10617     10620     10623
     10620     10623     10626     10627     10620     10623     10626     10628
     10620     10623     10626     10629     10621     10620     10623     10624
     10621     10620     10623     10625     10621     10620     10623     10626
     10622     10620     10623     10624     10622     10620     10623     10625
     10622     10620     10623     10626     10623     10626     10629     10630
     10623     10626     10629     10631     10623     10626     10629     10632
     10624     10623     10626     10627     10624     10623     10626     10628
     10624     10623     10626     10629     10625     10623     10626     10627
     10625     10623     10626     10628     10625     10623     10626     10629
     10627     10626     10629     10630     10627     10626     10629     10631
     10627     10626     10629     10632     10628     10626     10629     10630
     10628     10626     10629     10631     10628     10626     10629     10632
     10633     10636     10639     10640     10633     10636     10639     10641
     10633     10636     10639     10642     10634     10633     10636     10637
     10634     10633     10636     10638     10634     10633     10636     10639
     10635     10633     10636     10637     10635     10633     10636     10638
     10635     10633     10636     10639     10636     10639     10642     10643
     10636     10639     10642     10644     10636     10639     10642     10645
     10637     10636     10639     10640     10637     10636     10639     10641
     10637     10636     10639     10642     10638     10636     10639     10640
     10638     10636     10639     10641     10638     10636     10639     10642
     10639     10642     10645     10646     10639     10642     10645     10647
     10639     10642     10645     10648     10640     10639     10642     10643
     10640     10639     10642     10644     10640     10639     10642     10645
     10641     10639     10642     10643     10641     10639     10642     10644
     10641     10639     10642     10645     10642     10645     10648     10649
     10642     10645     10648     10650     10642     10645     10648     10651
     10643     10642     10645     10646     10643     10642     10645     10647
     10643     10642     10645     10648     10644     10642     10645     10646
     10644     10642     10645     10647     10644     10642     10645     10648
     10645     10648     10651     10652     10645     10648     10651     10653
     10645     10648     10651     10654     10646     10645     10648     10649
     10646     10645     10648     10650     10646     10645     10648     10651
     10647     10645     10648     10649     10647     10645     10648     10650
     10647     10645     10648     10651     10648     10651     10654     10655
     10648     10651     10654     10656     10648     10651     10654     10657
     10649     10648     10651     10652     10649     10648     10651     10653
     10649     10648     10651     10654     10650     10648     10651     10652
     10650     10648     10651     10653     10650     10648     10651     10654
     10651     10654     10657     10658     10651     10654     10657     10659
     10651     10654     10657     10660     10652     10651     10654     10655
     10652     10651     10654     10656     10652     10651     10654     10657
     10653     10651     10654     10655     10653     10651     10654     10656
     10653     10651     10654     10657     10654     10657     10660     10661
     10654     10657     10660     10662     10654     10657     10660     10663
     10655     10654     10657     10658     10655     10654     10657     10659
     10655     10654     10657     10660     10656     10654     10657     10658
     10656     10654     10657     10659     10656     10654     10657     10660
     10657     10660     10663     10664     10657     10660     10663     10665
     10657     10660     10663     10666     10658     10657     10660     10661
     10658     10657     10660     10662     10658     10657     10660     10663
     10659     10657     10660     10661     10659     10657     10660     10662
     10659     10657     10660     10663     10660     10663     10666     10667
     10660     10663     10666     10668     10660     10663     10666     10669
     10661     10660     10663     10664     10661     10660     10663     10665
     10661     10660     10663     10666     10662     10660     10663     10664
     10662     10660     10663     10665     10662     10660     10663     10666
     10663     10666     10669     10670     10663     10666     10669     10671
     10663     10666     10669     10672     10664     10663     10666     10667
     10664     10663     10666     10668     10664     10663     10666     10669
     10665     10663     10666     10667     10665     10663     10666     10668
     10665     10663     10666     10669     10666     10669     10672     10673
     10666     10669     10672     10674     10666     10669     10672     10675
     10667     10666     10669     10670     10667     10666     10669     10671
     10667     10666     10669     10672     10668     10666     10669     10670
     10668     10666     10669     10671     10668     10666     10669     10672
     10669     10672     10675     10676     10669     10672     10675     10677
     10669     10672     10675     10678     10670     10669     10672     10673
     10670     10669     10672     10674     10670     10669     10672     10675
     10671     10669     10672     10673     10671     10669     10672     10674
     10671     10669     10672     10675     10672     10675     10678     10679
     10672     10675     10678     10680     10672     10675     10678     10681
     10673     10672     10675     10676     10673     10672     10675     10677
     10673     10672     10675     10678     10674     10672     10675     10676
     10674     10672     10675     10677     10674     10672     10675     10678
     10676     10675     10678     10679     10676     10675     10678     10680
     10676     10675     10678     10681     10677     10675     10678     10679
     10677     10675     10678     10680     10677     10675     10678     10681
     10682     10686     10689     10690     10682     10686     10689     10720
     10682     10728     10725     10720     10682     10728     10725     10726
     10682     10728     10725     10727     10683     10682     10684     10685
     10683     10682     10686     10687     10683     10682     10686     10688
     10683     10682     10686     10689     10683     10682     10728     10725
     10683     10682     10728     10729     10683     10682     10728     10730
     10684     10682     10686     10687     10684     10682     10686     10688
     10684     10682     10686     10689     10684     10682     10728     10725
     10684     10682     10728     10729     10684     10682     10728     10730
     10685     10684     10682     10686     10685     10684     10682     10728
     10686     10682     10728     10725     10686     10682     10728     10729
     10686     10682     10728     10730     10686     10689     10690     10691
     10686     10689     10690     10692     10686     10689     10720     10718
     10686     10689     10720     10721     10686     10689     10720     10725
     10687     10686     10682     10728     10687     10686     10689     10690
     10687     10686     10689     10720     10688     10686     10682     10728
     10688     10686     10689     10690     10688     10686     10689     10720
     10689     10686     10682     10728     10689     10690     10692     10693
     10689     10690     10692     10694     10689     10690     10692     10695
     10689     10720     10718     10695     10689     10720     10718     10715
     10689     10720     10718     10719     10689     10720     10721     10722
     10689     10720     10721     10723     10689     10720     10721     10724
     10689     10720     10725     10726     10689     10720     10725     10727
     10689     10720     10725     10728     10690     10689     10720     10718
     10690     10689     10720     10721     10690     10689     10720     10725
     10690     10692     10695     10696     10690     10692     10695     10697
     10690     10692     10695     10718     10691     10690     10689     10720
     10691     10690     10692     10693     10691     10690     10692     10694
     10691     10690     10692     10695     10692     10690     10689     10720
     10692     10695     10697     10698     10692     10695     10697     10699
     10692     10695     10697     10707     10692     10695     10718     10715
     10692     10695     10718     10719     10692     10695     10718     10720
     10693     10692     10695     10696     10693     10692     10695     10697
     10693     10692     10695     10718     10694     10692     10695     10696
     10694     10692     10695     10697     10694     10692     10695     10718
     10695     10697     10699     10700     10695     10697     10699     10701
     10695     10697     10699     10702     10695     10697     10707     10705
     10695     10697     10707     10708     10695     10697     10707     10712
     10695     10718     10715     10712     10695     10718     10715     10716
     10695     10718     10715     10717     10695     10718     10720     10721
     10695     10718     10720     10725     10696     10695     10697     10698
     10696     10695     10697     10699     10696     10695     10697     10707
     10696     10695     10718     10715     10696     10695     10718     10719
     10696     10695     10718     10720     10697     10695     10718     10715
     10697     10695     10718     10719     10697     10695     10718     10720
     10697     10699     10702     10703     10697     10699     10702     10704
     10697     10699     10702     10705     10697     10707     10705     10702
     10697     10707     10705     10706     10697     10707     10705     10731
     10697     10707     10708     10709     10697     10707     10708     10710
     10697     10707     10708     10711     10697     10707     10712     10713
     10697     10707     10712     10714     10697     10707     10712     10715
     10698     10697     10695     10718     10698     10697     10699     10700
     10698     10697     10699     10701     10698     10697     10699     10702
     10698     10697     10707     10705     10698     10697     10707     10708
     10698     10697     10707     10712     10699     10697     10695     10718
     10699     10697     10707     10705     10699     10697     10707     10708
     10699     10697     10707     10712     10699     10702     10705     10706
     10699     10702     10705     10707     10699     10702     10705     10731
     10700     10699     10697     10707     10700     10699     10702     10703
     10700     10699     10702     10704     10700     10699     10702     10705
     10701     10699     10697     10707     10701     10699     10702     10703
     10701     10699     10702     10704     10701     10699     10702     10705
     10702     10699     10697     10707     10702     10705     10707     10708
     10702     10705     10707     10712     10702     10705     10731     10732
     10702     10705     10731     10733     10702     10705     10731     10737
     10703     10702     10705     10706     10703     10702     10705     10707
     10703     10702     10705     10731     10704     10702     10705     10706
     10704     10702     10705     10707     10704     10702     10705     10731
     10705     10707     10708     10709     10705     10707     10708     10710
     10705     10707     10708     10711     10705     10707     10712     10713
     10705     10707     10712     10714     10705     10707     10712     10715
     10705     10731     10733     10734     10705     10731     10733     10735
     10705     10731     10733     10736     10705     10731     10737     10738
     10705     10731     10737     10739     10705     10731     10737     10740
     10706     10705     10707     10708     10706     10705     10707     10712
     10706     10705     10731     10732     10706     10705     10731     10733
     10706     10705     10731     10737     10707     10697     10695     10718
     10707     10705     10731     10732     10707     10705     10731     10733
     10707     10705     10731     10737     10707     10712     10715     10716
     10707     10712     10715     10717     10707     10712     10715     10718
     10708     10707     10705     10731     10708     10707     10712     10713
     10708     10707     10712     10714     10708     10707     10712     10715
     10709     10708     10707     10712     10710     10708     10707     10712
     10711     10708     10707     10712     10712     10707     10705     10731
     10712     10715     10718     10719     10712     10715     10718     10720
     10713     10712     10715     10716     10713     10712     10715     10717
     10713     10712     10715     10718     10714     10712     10715     10716
     10714     10712     10715     10717     10714     10712     10715     10718
     10715     10718     10720     10721     10715     10718     10720     10725
     10716     10715     10718     10719     10716     10715     10718     10720
     10717     10715     10718     10719     10717     10715     10718     10720
     10718     10720     10721     10722     10718     10720     10721     10723
     10718     10720     10721     10724     10718     10720     10725     10726
     10718     10720     10725     10727     10718     10720     10725     10728
     10719     10718     10720     10721     10719     10718     10720     10725
     10720     10725     10728     10729     10720     10725     10728     10730
     10721     10720     10725     10726     10721     10720     10725     10727
     10721     10720     10725     10728     10722     10721     10720     10725
     10723     10721     10720     10725     10724     10721     10720     10725
     10726     10725     10728     10729     10726     10725     10728     10730
     10727     10725     10728     10729     10727     10725     10728     10730
     10731     10737     10740     10741     10731     10737     10740     10742
     10731     10737     10740     10743     10732     10731     10733     10734
     10732     10731     10733     10735     10732     10731     10733     10736
     10732     10731     10737     10738     10732     10731     10737     10739
     10732     10731     10737     10740     10733     10731     10737     10738
     10733     10731     10737     10739     10733     10731     10737     10740
     10734     10733     10731     10737     10735     10733     10731     10737
     10736     10733     10731     10737     10737     10740     10743     10744
     10737     10740     10743     10745     10737     10740     10743     10746
     10738     10737     10740     10741     10738     10737     10740     10742
     10738     10737     10740     10743     10739     10737     10740     10741
     10739     10737     10740     10742     10739     10737     10740     10743
     10740     10743     10746     10747     10740     10743     10746     10748
     10740     10743     10746     10752     10741     10740     10743     10744
     10741     10740     10743     10745     10741     10740     10743     10746
     10742     10740     10743     10744     10742     10740     10743     10745
     10742     10740     10743     10746     10743     10746     10748     10749
     10743     10746     10748     10750     10743     10746     10748     10751
     10743     10746     10752     10753     10743     10746     10752     10754
     10743     10746     10752     10755     10744     10743     10746     10747
     10744     10743     10746     10748     10744     10743     10746     10752
     10745     10743     10746     10747     10745     10743     10746     10748
     10745     10743     10746     10752     10747     10746     10748     10749
     10747     10746     10748     10750     10747     10746     10748     10751
     10747     10746     10752     10753     10747     10746     10752     10754
     10747     10746     10752     10755     10748     10746     10752     10753
     10748     10746     10752     10754     10748     10746     10752     10755
     10749     10748     10746     10752     10750     10748     10746     10752
     10751     10748     10746     10752     10756     10757     10772     10773
     10756     10757     10772     10774     10756     10757     10772     10778
     10757     10756     10760     10761     10757     10756     10760     10762
     10757     10756     10760     10763     10757     10756     10764     10765
     10757     10756     10764     10766     10757     10756     10764     10767
     10757     10756     10768     10769     10757     10756     10768     10770
     10757     10756     10768     10771     10757     10772     10778     10775
     10758     10757     10756     10760     10758     10757     10756     10764
     10758     10757     10756     10768     10758     10757     10772     10773
     10758     10757     10772     10774     10758     10757     10772     10778
     10759     10757     10756     10760     10759     10757     10756     10764
     10759     10757     10756     10768     10759     10757     10772     10773
     10759     10757     10772     10774     10759     10757     10772     10778
     10760     10756     10757     10772     10760     10756     10764     10765
     10760     10756     10764     10766     10760     10756     10764     10767
     10760     10756     10768     10769     10760     10756     10768     10770
     10760     10756     10768     10771     10761     10760     10756     10764
     10761     10760     10756     10768     10762     10760     10756     10764
     10762     10760     10756     10768     10763     10760     10756     10764
     10763     10760     10756     10768     10764     10756     10757     10772
     10764     10756     10768     10769     10764     10756     10768     10770
     10764     10756     10768     10771     10765     10764     10756     10768
     10766     10764     10756     10768     10767     10764     10756     10768
     10768     10756     10757     10772     10772     10778     10775     10776
     10772     10778     10775     10777     10772     10778     10775     10779
     10773     10772     10778     10775     10774     10772     10778     10775
     10775     10779     10780     10781     10775     10779     10780     10782
     10775     10779     10780     10783     10776     10775     10779     10780
     10777     10775     10779     10780     10778     10775     10779     10780
     10779     10780     10783     10784     10779     10780     10783     10785
     10779     10780     10783     10791     10780     10783     10785     10786
     10780     10783     10791     10792     10780     10783     10791     10793
     10780     10783     10791     10794     10781     10780     10783     10784
     10781     10780     10783     10785     10781     10780     10783     10791
     10782     10780     10783     10784     10782     10780     10783     10785
     10782     10780     10783     10791     10783     10785     10786     10787
     10783     10785     10786     10788     10783     10791     10794     10795
     10784     10783     10785     10786     10784     10783     10791     10792
     10784     10783     10791     10793     10784     10783     10791     10794
     10785     10783     10791     10792     10785     10783     10791     10793
     10785     10783     10791     10794     10785     10786     10788     10789
     10785     10786     10788     10790     10785     10786     10788     10800
     10786     10785     10783     10791     10786     10788     10800     10801
     10786     10788     10800     10802     10786     10788     10800     10803
     10787     10786     10788     10789     10787     10786     10788     10790
     10787     10786     10788     10800     10788     10800     10803     10804
     10788     10800     10803     10805     10788     10800     10803     10806
     10789     10788     10800     10801     10789     10788     10800     10802
     10789     10788     10800     10803     10790     10788     10800     10801
     10790     10788     10800     10802     10790     10788     10800     10803
     10791     10794     10795     10796     10791     10794     10795     10797
     10792     10791     10794     10795     10793     10791     10794     10795
     10794     10795     10797     10798     10794     10795     10797     10799
     10794     10795     10797     10847     10795     10797     10847     10848
     10795     10797     10847     10849     10795     10797     10847     10850
     10796     10795     10797     10798     10796     10795     10797     10799
     10796     10795     10797     10847     10797     10847     10850     10851
     10797     10847     10850     10852     10797     10847     10850     10853
     10798     10797     10847     10848     10798     10797     10847     10849
     10798     10797     10847     10850     10799     10797     10847     10848
     10799     10797     10847     10849     10799     10797     10847     10850
     10800     10803     10806     10807     10800     10803     10806     10808
     10800     10803     10806     10809     10801     10800     10803     10804
     10801     10800     10803     10805     10801     10800     10803     10806
     10802     10800     10803     10804     10802     10800     10803     10805
     10802     10800     10803     10806     10803     10806     10809     10810
     10803     10806     10809     10811     10803     10806     10809     10812
     10804     10803     10806     10807     10804     10803     10806     10808
     10804     10803     10806     10809     10805     10803     10806     10807
     10805     10803     10806     10808     10805     10803     10806     10809
     10806     10809     10812     10813     10806     10809     10812     10814
     10806     10809     10812     10815     10807     10806     10809     10810
     10807     10806     10809     10811     10807     10806     10809     10812
     10808     10806     10809     10810     10808     10806     10809     10811
     10808     10806     10809     10812     10809     10812     10815     10816
     10809     10812     10815     10817     10809     10812     10815     10818
     10810     10809     10812     10813     10810     10809     10812     10814
     10810     10809     10812     10815     10811     10809     10812     10813
     10811     10809     10812     10814     10811     10809     10812     10815
     10812     10815     10818     10819     10812     10815     10818     10820
     10813     10812     10815     10816     10813     10812     10815     10817
     10813     10812     10815     10818     10814     10812     10815     10816
     10814     10812     10815     10817     10814     10812     10815     10818
     10815     10818     10820     10821     10815     10818     10820     10822
     10816     10815     10818     10819     10816     10815     10818     10820
     10817     10815     10818     10819     10817     10815     10818     10820
     10818     10820     10822     10823     10818     10820     10822     10824
     10818     10820     10822     10825     10819     10818     10820     10821
     10819     10818     10820     10822     10820     10822     10825     10826
     10820     10822     10825     10827     10820     10822     10825     10828
     10821     10820     10822     10823     10821     10820     10822     10824
     10821     10820     10822     10825     10822     10825     10828     10829
     10822     10825     10828     10830     10822     10825     10828     10831
     10823     10822     10825     10826     10823     10822     10825     10827
     10823     10822     10825     10828     10824     10822     10825     10826
     10824     10822     10825     10827     10824     10822     10825     10828
     10825     10828     10831     10832     10825     10828     10831     10833
     10825     10828     10831     10834     10826     10825     10828     10829
     10826     10825     10828     10830     10826     10825     10828     10831
     10827     10825     10828     10829     10827     10825     10828     10830
     10827     10825     10828     10831     10828     10831     10834     10835
     10828     10831     10834     10836     10828     10831     10834     10837
     10829     10828     10831     10832     10829     10828     10831     10833
     10829     10828     10831     10834     10830     10828     10831     10832
     10830     10828     10831     10833     10830     10828     10831     10834
     10831     10834     10837     10838     10831     10834     10837     10839
     10831     10834     10837     10840     10832     10831     10834     10835
     10832     10831     10834     10836     10832     10831     10834     10837
     10833     10831     10834     10835     10833     10831     10834     10836
     10833     10831     10834     10837     10834     10837     10840     10841
     10834     10837     10840     10842     10834     10837     10840     10843
     10835     10834     10837     10838     10835     10834     10837     10839
     10835     10834     10837     10840     10836     10834     10837     10838
     10836     10834     10837     10839     10836     10834     10837     10840
     10837     10840     10843     10844     10837     10840     10843     10845
     10837     10840     10843     10846     10838     10837     10840     10841
     10838     10837     10840     10842     10838     10837     10840     10843
     10839     10837     10840     10841     10839     10837     10840     10842
     10839     10837     10840     10843     10841     10840     10843     10844
     10841     10840     10843     10845     10841     10840     10843     10846
     10842     10840     10843     10844     10842     10840     10843     10845
     10842     10840     10843     10846     10847     10850     10853     10854
     10847     10850     10853     10855     10847     10850     10853     10856
     10848     10847     10850     10851     10848     10847     10850     10852
     10848     10847     10850     10853     10849     10847     10850     10851
     10849     10847     10850     10852     10849     10847     10850     10853
     10850     10853     10856     10857     10850     10853     10856     10858
     10850     10853     10856     10859     10851     10850     10853     10854
     10851     10850     10853     10855     10851     10850     10853     10856
     10852     10850     10853     10854     10852     10850     10853     10855
     10852     10850     10853     10856     10853     10856     10859     10860
     10853     10856     10859     10861     10853     10856     10859     10862
     10854     10853     10856     10857     10854     10853     10856     10858
     10854     10853     10856     10859     10855     10853     10856     10857
     10855     10853     10856     10858     10855     10853     10856     10859
     10856     10859     10862     10863     10856     10859     10862     10864
     10856     10859     10862     10865     10857     10856     10859     10860
     10857     10856     10859     10861     10857     10856     10859     10862
     10858     10856     10859     10860     10858     10856     10859     10861
     10858     10856     10859     10862     10859     10862     10865     10866
     10859     10862     10865     10867     10859     10862     10865     10868
     10860     10859     10862     10863     10860     10859     10862     10864
     10860     10859     10862     10865     10861     10859     10862     10863
     10861     10859     10862     10864     10861     10859     10862     10865
     10862     10865     10868     10869     10862     10865     10868     10870
     10862     10865     10868     10871     10863     10862     10865     10866
     10863     10862     10865     10867     10863     10862     10865     10868
     10864     10862     10865     10866     10864     10862     10865     10867
     10864     10862     10865     10868     10865     10868     10871     10872
     10865     10868     10871     10873     10865     10868     10871     10874
     10866     10865     10868     10869     10866     10865     10868     10870
     10866     10865     10868     10871     10867     10865     10868     10869
     10867     10865     10868     10870     10867     10865     10868     10871
     10868     10871     10874     10875     10868     10871     10874     10876
     10868     10871     10874     10877     10869     10868     10871     10872
     10869     10868     10871     10873     10869     10868     10871     10874
     10870     10868     10871     10872     10870     10868     10871     10873
     10870     10868     10871     10874     10871     10874     10877     10878
     10871     10874     10877     10879     10871     10874     10877     10880
     10872     10871     10874     10875     10872     10871     10874     10876
     10872     10871     10874     10877     10873     10871     10874     10875
     10873     10871     10874     10876     10873     10871     10874     10877
     10874     10877     10880     10881     10874     10877     10880     10882
     10874     10877     10880     10883     10875     10874     10877     10878
     10875     10874     10877     10879     10875     10874     10877     10880
     10876     10874     10877     10878     10876     10874     10877     10879
     10876     10874     10877     10880     10877     10880     10883     10884
     10877     10880     10883     10885     10877     10880     10883     10886
     10878     10877     10880     10881     10878     10877     10880     10882
     10878     10877     10880     10883     10879     10877     10880     10881
     10879     10877     10880     10882     10879     10877     10880     10883
     10880     10883     10886     10887     10880     10883     10886     10888
     10880     10883     10886     10889     10881     10880     10883     10884
     10881     10880     10883     10885     10881     10880     10883     10886
     10882     10880     10883     10884     10882     10880     10883     10885
     10882     10880     10883     10886     10884     10883     10886     10887
     10884     10883     10886     10888     10884     10883     10886     10889
     10885     10883     10886     10887     10885     10883     10886     10888
     10885     10883     10886     10889     10890     10894     10896     10897
     10890     10894     10896     10898     10890     10894     10899     10900
     10890     10894     10899     10901     10890     10894     10899     10905
     10891     10890     10894     10895     10891     10890     10894     10896
     10891     10890     10894     10899     10892     10890     10894     10895
     10892     10890     10894     10896     10892     10890     10894     10899
     10893     10890     10894     10895     10893     10890     10894     10896
     10893     10890     10894     10899     10894     10899     10905     10902
     10895     10894     10896     10897     10895     10894     10896     10898
     10895     10894     10899     10900     10895     10894     10899     10901
     10895     10894     10899     10905     10896     10894     10899     10900
     10896     10894     10899     10901     10896     10894     10899     10905
     10897     10896     10894     10899     10898     10896     10894     10899
     10899     10905     10902     10903     10899     10905     10902     10904
     10899     10905     10902     10906     10900     10899     10905     10902
     10901     10899     10905     10902     10902     10906     10907     10908
     10902     10906     10907     10909     10902     10906     10907     10910
     10903     10902     10906     10907     10904     10902     10906     10907
     10905     10902     10906     10907     10906     10907     10910     10911
     10906     10907     10910     10912     10906     10907     10910     10918
     10907     10910     10912     10913     10907     10910     10918     10919
     10907     10910     10918     10920     10907     10910     10918     10921
     10908     10907     10910     10911     10908     10907     10910     10912
     10908     10907     10910     10918     10909     10907     10910     10911
     10909     10907     10910     10912     10909     10907     10910     10918
     10910     10912     10913     10914     10910     10912     10913     10915
     10910     10918     10921     10922     10911     10910     10912     10913
     10911     10910     10918     10919     10911     10910     10918     10920
     10911     10910     10918     10921     10912     10910     10918     10919
     10912     10910     10918     10920     10912     10910     10918     10921
     10912     10913     10915     10916     10912     10913     10915     10917
     10912     10913     10915     10927     10913     10912     10910     10918
     10913     10915     10927     10928     10913     10915     10927     10929
     10913     10915     10927     10930     10914     10913     10915     10916
     10914     10913     10915     10917     10914     10913     10915     10927
     10915     10927     10930     10931     10915     10927     10930     10932
     10915     10927     10930     10933     10916     10915     10927     10928
     10916     10915     10927     10929     10916     10915     10927     10930
     10917     10915     10927     10928     10917     10915     10927     10929
     10917     10915     10927     10930     10918     10921     10922     10923
     10918     10921     10922     10924     10919     10918     10921     10922
     10920     10918     10921     10922     10921     10922     10924     10925
     10921     10922     10924     10926     10921     10922     10924     10974
     10922     10924     10974     10975     10922     10924     10974     10976
     10922     10924     10974     10977     10923     10922     10924     10925
     10923     10922     10924     10926     10923     10922     10924     10974
     10924     10974     10977     10978     10924     10974     10977     10979
     10924     10974     10977     10980     10925     10924     10974     10975
     10925     10924     10974     10976     10925     10924     10974     10977
     10926     10924     10974     10975     10926     10924     10974     10976
     10926     10924     10974     10977     10927     10930     10933     10934
     10927     10930     10933     10935     10928     10927     10930     10931
     10928     10927     10930     10932     10928     10927     10930     10933
     10929     10927     10930     10931     10929     10927     10930     10932
     10929     10927     10930     10933     10930     10933     10935     10936
     10930     10933     10935     10937     10931     10930     10933     10934
     10931     10930     10933     10935     10932     10930     10933     10934
     10932     10930     10933     10935     10933     10935     10937     10938
     10933     10935     10937     10939     10933     10935     10937     10940
     10934     10933     10935     10936     10934     10933     10935     10937
     10935     10937     10940     10941     10935     10937     10940     10942
     10936     10935     10937     10938     10936     10935     10937     10939
     10936     10935     10937     10940     10937     10940     10942     10943
     10937     10940     10942     10944     10938     10937     10940     10941
     10938     10937     10940     10942     10939     10937     10940     10941
     10939     10937     10940     10942     10940     10942     10944     10945
     10940     10942     10944     10946     10940     10942     10944     10947
     10941     10940     10942     10943     10941     10940     10942     10944
     10942     10944     10947     10948     10942     10944     10947     10949
     10943     10942     10944     10945     10943     10942     10944     10946
     10943     10942     10944     10947     10944     10947     10949     10950
     10944     10947     10949     10951     10945     10944     10947     10948
     10945     10944     10947     10949     10946     10944     10947     10948
     10946     10944     10947     10949     10947     10949     10951     10952
     10947     10949     10951     10953     10947     10949     10951     10954
     10948     10947     10949     10950     10948     10947     10949     10951
     10949     10951     10954     10955     10949     10951     10954     10956
     10950     10949     10951     10952     10950     10949     10951     10953
     10950     10949     10951     10954     10951     10954     10956     10957
     10951     10954     10956     10958     10952     10951     10954     10955
     10952     10951     10954     10956     10953     10951     10954     10955
     10953     10951     10954     10956     10954     10956     10958     10959
     10954     10956     10958     10960     10954     10956     10958     10961
     10955     10954     10956     10957     10955     10954     10956     10958
     10956     10958     10961     10962     10956     10958     10961     10963
     10956     10958     10961     10964     10957     10956     10958     10959
     10957     10956     10958     10960     10957     10956     10958     10961
     10958     10961     10964     10965     10958     10961     10964     10966
     10958     10961     10964     10967     10959     10958     10961     10962
     10959     10958     10961     10963     10959     10958     10961     10964
     10960     10958     10961     10962     10960     10958     10961     10963
     10960     10958     10961     10964     10961     10964     10967     10968
     10961     10964     10967     10969     10961     10964     10967     10970
     10962     10961     10964     10965     10962     10961     10964     10966
     10962     10961     10964     10967     10963     10961     10964     10965
     10963     10961     10964     10966     10963     10961     10964     10967
     10964     10967     10970     10971     10964     10967     10970     10972
     10964     10967     10970     10973     10965     10964     10967     10968
     10965     10964     10967     10969     10965     10964     10967     10970
     10966     10964     10967     10968     10966     10964     10967     10969
     10966     10964     10967     10970     10968     10967     10970     10971
     10968     10967     10970     10972     10968     10967     10970     10973
     10969     10967     10970     10971     10969     10967     10970     10972
     10969     10967     10970     10973     10974     10977     10980     10981
     10974     10977     10980     10982     10974     10977     10980     10983
     10975     10974     10977     10978     10975     10974     10977     10979
     10975     10974     10977     10980     10976     10974     10977     10978
     10976     10974     10977     10979     10976     10974     10977     10980
     10977     10980     10983     10984     10977     10980     10983     10985
     10977     10980     10983     10986     10978     10977     10980     10981
     10978     10977     10980     10982     10978     10977     10980     10983
     10979     10977     10980     10981     10979     10977     10980     10982
     10979     10977     10980     10983     10980     10983     10986     10987
     10980     10983     10986     10988     10980     10983     10986     10989
     10981     10980     10983     10984     10981     10980     10983     10985
     10981     10980     10983     10986     10982     10980     10983     10984
     10982     10980     10983     10985     10982     10980     10983     10986
     10983     10986     10989     10990     10983     10986     10989     10991
     10983     10986     10989     10992     10984     10983     10986     10987
     10984     10983     10986     10988     10984     10983     10986     10989
     10985     10983     10986     10987     10985     10983     10986     10988
     10985     10983     10986     10989     10986     10989     10992     10993
     10986     10989     10992     10994     10986     10989     10992     10995
     10987     10986     10989     10990     10987     10986     10989     10991
     10987     10986     10989     10992     10988     10986     10989     10990
     10988     10986     10989     10991     10988     10986     10989     10992
     10989     10992     10995     10996     10989     10992     10995     10997
     10989     10992     10995     10998     10990     10989     10992     10993
     10990     10989     10992     10994     10990     10989     10992     10995
     10991     10989     10992     10993     10991     10989     10992     10994
     10991     10989     10992     10995     10992     10995     10998     10999
     10992     10995     10998     11000     10992     10995     10998     11001
     10993     10992     10995     10996     10993     10992     10995     10997
     10993     10992     10995     10998     10994     10992     10995     10996
     10994     10992     10995     10997     10994     10992     10995     10998
     10995     10998     11001     11002     10995     10998     11001     11003
     10995     10998     11001     11004     10996     10995     10998     10999
     10996     10995     10998     11000     10996     10995     10998     11001
     10997     10995     10998     10999     10997     10995     10998     11000
     10997     10995     10998     11001     10998     11001     11004     11005
     10998     11001     11004     11006     10998     11001     11004     11007
     10999     10998     11001     11002     10999     10998     11001     11003
     10999     10998     11001     11004     11000     10998     11001     11002
     11000     10998     11001     11003     11000     10998     11001     11004
     11001     11004     11007     11008     11001     11004     11007     11009
     11001     11004     11007     11010     11002     11001     11004     11005
     11002     11001     11004     11006     11002     11001     11004     11007
     11003     11001     11004     11005     11003     11001     11004     11006
     11003     11001     11004     11007     11004     11007     11010     11011
     11004     11007     11010     11012     11004     11007     11010     11013
     11005     11004     11007     11008     11005     11004     11007     11009
     11005     11004     11007     11010     11006     11004     11007     11008
     11006     11004     11007     11009     11006     11004     11007     11010
     11007     11010     11013     11014     11007     11010     11013     11015
     11007     11010     11013     11016     11008     11007     11010     11011
     11008     11007     11010     11012     11008     11007     11010     11013
     11009     11007     11010     11011     11009     11007     11010     11012
     11009     11007     11010     11013     11010     11013     11016     11017
     11010     11013     11016     11018     11010     11013     11016     11019
     11011     11010     11013     11014     11011     11010     11013     11015
     11011     11010     11013     11016     11012     11010     11013     11014
     11012     11010     11013     11015     11012     11010     11013     11016
     11013     11016     11019     11020     11013     11016     11019     11021
     11013     11016     11019     11022     11014     11013     11016     11017
     11014     11013     11016     11018     11014     11013     11016     11019
     11015     11013     11016     11017     11015     11013     11016     11018
     11015     11013     11016     11019     11017     11016     11019     11020
     11017     11016     11019     11021     11017     11016     11019     11022
     11018     11016     11019     11020     11018     11016     11019     11021
     11018     11016     11019     11022     11023     11036     11039     11040
     11023     11036     11039     11041     11023     11036     11039     11045
     11024     11023     11028     11029     11024     11023     11028     11030
     11024     11023     11028     11031     11024     11023     11032     11033
     11024     11023     11032     11034     11024     11023     11032     11035
     11024     11023     11036     11037     11024     11023     11036     11038
     11024     11023     11036     11039     11025     11024     11023     11028
     11025     11024     11023     11032     11025     11024     11023     11036
     11026     11024     11023     11028     11026     11024     11023     11032
     11026     11024     11023     11036     11027     11024     11023     11028
     11027     11024     11023     11032     11027     11024     11023     11036
     11028     11023     11032     11033     11028     11023     11032     11034
     11028     11023     11032     11035     11028     11023     11036     11037
     11028     11023     11036     11038     11028     11023     11036     11039
     11029     11028     11023     11032     11029     11028     11023     11036
     11030     11028     11023     11032     11030     11028     11023     11036
     11031     11028     11023     11032     11031     11028     11023     11036
     11032     11023     11036     11037     11032     11023     11036     11038
     11032     11023     11036     11039     11033     11032     11023     11036
     11034     11032     11023     11036     11035     11032     11023     11036
     11036     11039     11045     11042     11037     11036     11039     11040
     11037     11036     11039     11041     11037     11036     11039     11045
     11038     11036     11039     11040     11038     11036     11039     11041
     11038     11036     11039     11045     11039     11045     11042     11043
     11039     11045     11042     11044     11039     11045     11042     11046
     11040     11039     11045     11042     11041     11039     11045     11042
     11042     11046     11047     11048     11042     11046     11047     11049
     11042     11046     11047     11050     11043     11042     11046     11047
     11044     11042     11046     11047     11045     11042     11046     11047
     11046     11047     11050     11051     11046     11047     11050     11052
     11046     11047     11050     11058     11047     11050     11052     11053
     11047     11050     11058     11059     11047     11050     11058     11060
     11047     11050     11058     11061     11048     11047     11050     11051
     11048     11047     11050     11052     11048     11047     11050     11058
     11049     11047     11050     11051     11049     11047     11050     11052
     11049     11047     11050     11058     11050     11052     11053     11054
     11050     11052     11053     11055     11050     11058     11061     11062
     11051     11050     11052     11053     11051     11050     11058     11059
     11051     11050     11058     11060     11051     11050     11058     11061
     11052     11050     11058     11059     11052     11050     11058     11060
     11052     11050     11058     11061     11052     11053     11055     11056
     11052     11053     11055     11057     11052     11053     11055     11067
     11053     11052     11050     11058     11053     11055     11067     11068
     11053     11055     11067     11069     11053     11055     11067     11070
     11054     11053     11055     11056     11054     11053     11055     11057
     11054     11053     11055     11067     11055     11067     11070     11071
     11055     11067     11070     11072     11055     11067     11070     11073
     11056     11055     11067     11068     11056     11055     11067     11069
     11056     11055     11067     11070     11057     11055     11067     11068
     11057     11055     11067     11069     11057     11055     11067     11070
     11058     11061     11062     11063     11058     11061     11062     11064
     11059     11058     11061     11062     11060     11058     11061     11062
     11061     11062     11064     11065     11061     11062     11064     11066
     11061     11062     11064     11112     11062     11064     11112     11113
     11062     11064     11112     11114     11062     11064     11112     11115
     11063     11062     11064     11065     11063     11062     11064     11066
     11063     11062     11064     11112     11064     11112     11115     11116
     11064     11112     11115     11117     11064     11112     11115     11118
     11065     11064     11112     11113     11065     11064     11112     11114
     11065     11064     11112     11115     11066     11064     11112     11113
     11066     11064     11112     11114     11066     11064     11112     11115
     11067     11070     11073     11074     11067     11070     11073     11075
     11067     11070     11073     11076     11068     11067     11070     11071
     11068     11067     11070     11072     11068     11067     11070     11073
     11069     11067     11070     11071     11069     11067     11070     11072
     11069     11067     11070     11073     11070     11073     11076     11077
     11070     11073     11076     11078     11070     11073     11076     11079
     11071     11070     11073     11074     11071     11070     11073     11075
     11071     11070     11073     11076     11072     11070     11073     11074
     11072     11070     11073     11075     11072     11070     11073     11076
     11073     11076     11079     11080     11073     11076     11079     11081
     11073     11076     11079     11082     11074     11073     11076     11077
     11074     11073     11076     11078     11074     11073     11076     11079
     11075     11073     11076     11077     11075     11073     11076     11078
     11075     11073     11076     11079     11076     11079     11082     11083
     11076     11079     11082     11084     11076     11079     11082     11085
     11077     11076     11079     11080     11077     11076     11079     11081
     11077     11076     11079     11082     11078     11076     11079     11080
     11078     11076     11079     11081     11078     11076     11079     11082
     11079     11082     11085     11086     11079     11082     11085     11087
     11080     11079     11082     11083     11080     11079     11082     11084
     11080     11079     11082     11085     11081     11079     11082     11083
     11081     11079     11082     11084     11081     11079     11082     11085
     11082     11085     11087     11088     11082     11085     11087     11089
     11083     11082     11085     11086     11083     11082     11085     11087
     11084     11082     11085     11086     11084     11082     11085     11087
     11085     11087     11089     11090     11085     11087     11089     11091
     11085     11087     11089     11092     11086     11085     11087     11088
     11086     11085     11087     11089     11087     11089     11092     11093
     11087     11089     11092     11094     11088     11087     11089     11090
     11088     11087     11089     11091     11088     11087     11089     11092
     11089     11092     11094     11095     11089     11092     11094     11096
     11090     11089     11092     11093     11090     11089     11092     11094
     11091     11089     11092     11093     11091     11089     11092     11094
     11092     11094     11096     11097     11092     11094     11096     11098
     11092     11094     11096     11099     11093     11092     11094     11095
     11093     11092     11094     11096     11094     11096     11099     11100
     11094     11096     11099     11101     11094     11096     11099     11102
     11095     11094     11096     11097     11095     11094     11096     11098
     11095     11094     11096     11099     11096     11099     11102     11103
     11096     11099     11102     11104     11096     11099     11102     11105
     11097     11096     11099     11100     11097     11096     11099     11101
     11097     11096     11099     11102     11098     11096     11099     11100
     11098     11096     11099     11101     11098     11096     11099     11102
     11099     11102     11105     11106     11099     11102     11105     11107
     11099     11102     11105     11108     11100     11099     11102     11103
     11100     11099     11102     11104     11100     11099     11102     11105
     11101     11099     11102     11103     11101     11099     11102     11104
     11101     11099     11102     11105     11102     11105     11108     11109
     11102     11105     11108     11110     11102     11105     11108     11111
     11103     11102     11105     11106     11103     11102     11105     11107
     11103     11102     11105     11108     11104     11102     11105     11106
     11104     11102     11105     11107     11104     11102     11105     11108
     11106     11105     11108     11109     11106     11105     11108     11110
     11106     11105     11108     11111     11107     11105     11108     11109
     11107     11105     11108     11110     11107     11105     11108     11111
     11112     11115     11118     11119     11112     11115     11118     11120
     11112     11115     11118     11121     11113     11112     11115     11116
     11113     11112     11115     11117     11113     11112     11115     11118
     11114     11112     11115     11116     11114     11112     11115     11117
     11114     11112     11115     11118     11115     11118     11121     11122
     11115     11118     11121     11123     11115     11118     11121     11124
     11116     11115     11118     11119     11116     11115     11118     11120
     11116     11115     11118     11121     11117     11115     11118     11119
     11117     11115     11118     11120     11117     11115     11118     11121
     11118     11121     11124     11125     11118     11121     11124     11126
     11118     11121     11124     11127     11119     11118     11121     11122
     11119     11118     11121     11123     11119     11118     11121     11124
     11120     11118     11121     11122     11120     11118     11121     11123
     11120     11118     11121     11124     11121     11124     11127     11128
     11121     11124     11127     11129     11121     11124     11127     11130
     11122     11121     11124     11125     11122     11121     11124     11126
     11122     11121     11124     11127     11123     11121     11124     11125
     11123     11121     11124     11126     11123     11121     11124     11127
     11124     11127     11130     11131     11124     11127     11130     11132
     11124     11127     11130     11133     11125     11124     11127     11128
     11125     11124     11127     11129     11125     11124     11127     11130
     11126     11124     11127     11128     11126     11124     11127     11129
     11126     11124     11127     11130     11127     11130     11133     11134
     11127     11130     11133     11135     11127     11130     11133     11136
     11128     11127     11130     11131     11128     11127     11130     11132
     11128     11127     11130     11133     11129     11127     11130     11131
     11129     11127     11130     11132     11129     11127     11130     11133
     11130     11133     11136     11137     11130     11133     11136     11138
     11130     11133     11136     11139     11131     11130     11133     11134
     11131     11130     11133     11135     11131     11130     11133     11136
     11132     11130     11133     11134     11132     11130     11133     11135
     11132     11130     11133     11136     11133     11136     11139     11140
     11133     11136     11139     11141     11133     11136     11139     11142
     11134     11133     11136     11137     11134     11133     11136     11138
     11134     11133     11136     11139     11135     11133     11136     11137
     11135     11133     11136     11138     11135     11133     11136     11139
     11136     11139     11142     11143     11136     11139     11142     11144
     11136     11139     11142     11145     11137     11136     11139     11140
     11137     11136     11139     11141     11137     11136     11139     11142
     11138     11136     11139     11140     11138     11136     11139     11141
     11138     11136     11139     11142     11139     11142     11145     11146
     11139     11142     11145     11147     11139     11142     11145     11148
     11140     11139     11142     11143     11140     11139     11142     11144
     11140     11139     11142     11145     11141     11139     11142     11143
     11141     11139     11142     11144     11141     11139     11142     11145
     11142     11145     11148     11149     11142     11145     11148     11150
     11142     11145     11148     11151     11143     11142     11145     11146
     11143     11142     11145     11147     11143     11142     11145     11148
     11144     11142     11145     11146     11144     11142     11145     11147
     11144     11142     11145     11148     11145     11148     11151     11152
     11145     11148     11151     11153     11145     11148     11151     11154
     11146     11145     11148     11149     11146     11145     11148     11150
     11146     11145     11148     11151     11147     11145     11148     11149
     11147     11145     11148     11150     11147     11145     11148     11151
     11148     11151     11154     11155     11148     11151     11154     11156
     11148     11151     11154     11157     11149     11148     11151     11152
     11149     11148     11151     11153     11149     11148     11151     11154
     11150     11148     11151     11152     11150     11148     11151     11153
     11150     11148     11151     11154     11151     11154     11157     11158
     11151     11154     11157     11159     11151     11154     11157     11160
     11152     11151     11154     11155     11152     11151     11154     11156
     11152     11151     11154     11157     11153     11151     11154     11155
     11153     11151     11154     11156     11153     11151     11154     11157
     11155     11154     11157     11158     11155     11154     11157     11159
     11155     11154     11157     11160     11156     11154     11157     11158
     11156     11154     11157     11159     11156     11154     11157     11160

       136 !NIMPHI: impropers
        80        82        28        81        28        80        30        29
       155       154       157       156       164       163       166       165
       286       285       288       287       295       294       297       296
       491       490       493       492       500       499       502       501
       754       756       702       755       702       754       704       703
       959       961       907       960       907       959       909       908
      1180      1179      1182      1181      1189      1188      1191      1190
      1394      1393      1396      1395      1403      1402      1405      1404
      1532      1531      1534      1533      1541      1540      1543      1542
      1672      1671      1674      1673      1681      1680      1683      1682
      1812      1811      1814      1813      1821      1820      1823      1822
      1941      1940      1943      1942      1950      1949      1952      1951
      2278      2280      2226      2279      2226      2278      2228      2227
      2360      2359      2362      2361      2369      2368      2371      2370
      2487      2486      2489      2488      2496      2495      2498      2497
      2676      2678      2624      2677      2624      2676      2626      2625
      2749      2748      2751      2750      2758      2757      2760      2759
      2880      2879      2882      2881      2889      2888      2891      2890
      3069      3071      3017      3070      3017      3069      3019      3018
      3200      3202      3148      3201      3148      3200      3150      3149
      3331      3333      3279      3332      3279      3331      3281      3280
      3404      3403      3406      3405      3413      3412      3415      3414
      3593      3595      3541      3594      3541      3593      3543      3542
      3740      3739      3742      3741      3749      3748      3751      3750
      3873      3872      3875      3874      3882      3881      3884      3883
      4013      4012      4015      4014      4022      4021      4024      4023
      4153      4152      4155      4154      4162      4161      4164      4163
      4278      4277      4280      4279      4287      4286      4289      4288
      4409      4408      4411      4410      4418      4417      4420      4419
      4542      4541      4544      4543      4551      4550      4553      4552
      4685      4684      4687      4686      4694      4693      4696      4695
      4973      4972      4975      4974      4982      4981      4984      4983
      5187      5186      5189      5188      5196      5195      5198      5197
      5399      5398      5401      5400      5408      5407      5410      5409
      5660      5662      5608      5661      5608      5660      5610      5609
      5865      5867      5813      5866      5813      5865      5815      5814
      6144      6146      6092      6145      6092      6144      6094      6093
      6226      6225      6228      6227      6235      6234      6237      6236
      6415      6417      6363      6416      6363      6415      6365      6364
      6497      6496      6499      6498      6506      6505      6508      6507
      6626      6625      6628      6627      6635      6634      6637      6636
      6757      6756      6759      6758      6766      6765      6768      6767
      6888      6887      6890      6889      6897      6896      6899      6898
      7019      7018      7021      7020      7028      7027      7030      7029
      7159      7158      7161      7160      7168      7167      7170      7169
      7348      7350      7296      7349      7296      7348      7298      7297
      7643      7642      7645      7644      7652      7651      7654      7653
      7774      7773      7776      7775      7783      7782      7785      7784
      7963      7965      7911      7964      7911      7963      7913      7912
      8045      8044      8047      8046      8054      8053      8056      8055
      8308      8310      8256      8309      8256      8308      8258      8257
      8390      8389      8392      8391      8399      8398      8401      8400
      8521      8520      8523      8522      8530      8529      8532      8531
      8654      8653      8656      8655      8663      8662      8665      8664
      8794      8793      8796      8795      8803      8802      8805      8804
      8977      8979      8925      8978      8925      8977      8927      8926
      9050      9049      9052      9051      9059      9058      9061      9060
      9341      9340      9343      9342      9350      9349      9352      9351
      9546      9545      9548      9547      9555      9554      9557      9556
      9735      9737      9683      9736      9683      9735      9685      9684
      9810      9809      9812      9811      9819      9818      9821      9820
     10015     10014     10017     10016     10024     10023     10026     10025
     10229     10228     10231     10230     10238     10237     10240     10239
     10367     10366     10369     10368     10376     10375     10378     10377
     10572     10571     10574     10573     10581     10580     10583     10582
     10786     10785     10788     10787     10795     10794     10797     10796
     10913     10912     10915     10914     10922     10921     10924     10923
     11053     11052     11055     11054     11062     11061     11064     11063

        92 !NDON: donors
     11161     11162     11161     11163     11164     11165     11164     11166
     11167     11168     11167     11169     11170     11171     11170     11172
     11173     11174     11173     11175     11176     11177     11176     11178
     11179     11180     11179     11181     11182     11183     11182     11184
     11185     11186     11185     11187     11188     11189     11188     11190
     11191     11192     11191     11193     11194     11195     11194     11196
     11197     11198     11197     11199     11200     11201     11200     11202
     11203     11204     11203     11205     11206     11207     11206     11208
     11209     11210     11209     11211     11212     11213     11212     11214
     11215     11216     11215     11217     11218     11219     11218     11220
     11221     11222     11221     11223     11224     11225     11224     11226
     11227     11228     11227     11229     11230     11231     11230     11232
     11233     11234     11233     11235     11236     11237     11236     11238
     11239     11240     11239     11241     11242     11243     11242     11244
     11245     11246     11245     11247     11248     11249     11248     11250
     11251     11252     11251     11253     11254     11255     11254     11256
     11257     11258     11257     11259     11260     11261     11260     11262
     11263     11264     11263     11265     11266     11267     11266     11268
     11269     11270     11269     11271     11272     11273     11272     11274
     11275     11276     11275     11277     11278     11279     11278     11280
     11281     11282     11281     11283     11284     11285     11284     11286
     11287     11288     11287     11289     11290     11291     11290     11292
     11293     11294     11293     11295     11296     11297     11296     11298

        46 !NACC: acceptors
     11161         0     11164         0     11167         0     11170         0
     11173         0     11176         0     11179         0     11182         0
     11185         0     11188         0     11191         0     11194         0
     11197         0     11200         0     11203         0     11206         0
     11209         0     11212         0     11215         0     11218         0
     11221         0     11224         0     11227         0     11230         0
     11233         0     11236         0     11239         0     11242         0
     11245         0     11248         0     11251         0     11254         0
     11257         0     11260         0     11263         0     11266         0
     11269         0     11272         0     11275         0     11278         0
     11281         0     11284         0     11287         0     11290         0
     11293         0     11296         0

         0 !NNB

         0         0         0         0         0         0         0         0
         0         0         0         0         0         0         0         0
         0         0         0         0         0         0         0         0
         0         0         0         0         0         0         0         0
         0         0         0         0         0         0         0         0
         0         0         0         0         0         0         0         0
         0         0         0         0         0         0         0         0
         0         0         0         0         0         0         0         0
         0         0         0         0         0         0         0         0
         0         0         0         0         0         0         0         0
         0         0         0         0         0         0         0         0
         0         0         0         0         0         0         0         0
         0         0         0         0         0         0         0         0
         0         0         0         0         0         0         0         0
         0         0         0         0         0         0         0         0
         0         0         0         0         0         0         0         0
         0         0         0         0         0         0         0         0
         0         0         0         0         0         0         0         0
         0         0         0         0         0         0         0         0
         0         0         0         0         0         0         0         0
         0         0         0         0         0         0         0         0
         0         0         0         0         0         0         0         0
         0         0         0         0         0         0         0         0
         0         0         0         0         0         0         0         0
         0         0         0         0         0         0         0         0
         0         0         0         0         0         0         0         0
         0         0         0         0         0         0         0         0
         0         0         0         0         0         0         0         0
         0         0         0         0         0         0         0         0
         0         0         0         0         0         0         0         0
         0         0         0         0         0         0         0         0
         0         0         0         0         0         0         0         0
         0         0         0         0         0         0         0         0
         0         0         0         0         0         0         0         0
         0         0         0         0         0         0         0         0
         0         0         0         0         0         0         0         0
         0         0         0         0         0         0         0         0
         0         0         0         0         0         0         0         0
         0         0         0         0         0         0         0         0
         0         0         0         0         0         0         0         0
         0         0         0         0         0         0         0         0
         0         0         0         0         0         0         0         0
         0         0         0         0         0         0         0         0
         0         0         0         0         0         0         0         0
         0         0         0         0         0         0         0         0
         0         0         0         0         0         0         0         0
         0         0         0         0         0         0         0         0
         0         0         0         0         0         0         0         0
         0         0         0         0         0         0         0         0
         0         0         0         0         0         0         0         0
         0         0         0         0         0         0         0         0
         0         0         0         0         0         0         0         0
         0         0         0         0         0         0         0         0
         0         0         0         0         0         0         0         0
         0         0         0         0         0         0         0         0
         0         0         0         0         0         0         0         0
         0         0         0         0         0         0         0         0
         0         0         0         0         0         0         0         0
         0         0         0         0         0         0         0         0
         0         0         0         0         0         0         0         0
         0         0         0         0         0         0         0         0
         0         0         0         0         0         0         0         0
         0         0         0         0         0         0         0         0
         0         0         0         0         0         0         0         0
         0         0         0         0         0         0         0         0
         0         0         0         0         0         0         0         0
         0         0         0         0         0         0         0         0
         0         0         0         0         0         0         0         0
         0         0         0         0         0         0         0         0
         0         0         0         0         0         0         0         0
         0         0         0         0         0         0         0         0
         0         0         0         0         0         0         0         0
         0         0         0         0         0         0         0         0
         0         0         0         0         0         0         0         0
         0         0         0         0         0         0         0         0
         0         0         0         0         0         0         0         0
         0         0         0         0         0         0         0         0
         0         0         0         0         0         0         0         0
         0         0         0         0         0         0         0         0
         0         0         0         0         0         0         0         0
         0         0         0         0         0         0         0         0
         0         0         0         0         0         0         0         0
         0         0         0         0         0         0         0         0
         0         0         0         0         0         0         0         0
         0         0         0         0         0         0         0         0
         0         0         0         0         0         0         0         0
         0         0         0         0         0         0         0         0
         0         0         0         0         0         0         0         0
         0         0         0         0         0         0         0         0
         0         0         0         0         0         0         0         0
         0         0         0         0         0         0         0         0
         0         0         0         0         0         0         0         0
         0         0         0         0         0         0         0         0
         0         0         0         0         0         0         0         0
         0         0         0         0         0         0         0         0
         0         0         0         0         0         0         0         0
         0         0         0         0         0         0         0         0
         0         0         0         0         0         0         0         0
         0         0         0         0         0         0         0         0
         0         0         0         0         0         0         0         0
         0         0         0         0         0         0         0         0
         0         0         0         0         0         0         0         0
         0         0         0         0         0         0         0         0
         0         0         0         0         0         0         0         0
         0         0         0         0         0         0         0         0
         0         0         0         0         0         0         0         0
         0         0         0         0         0         0         0         0
         0         0         0         0         0         0         0         0
         0         0         0         0         0         0         0         0
         0         0         0         0         0         0         0         0
         0         0         0         0         0         0         0         0
         0         0         0         0         0         0         0         0
         0         0         0         0         0         0         0         0
         0         0         0         0         0         0         0         0
         0         0         0         0         0         0         0         0
         0         0         0         0         0         0         0         0
         0         0         0         0         0         0         0         0
         0         0         0         0         0         0         0         0
         0         0         0         0         0         0         0         0
         0         0         0         0         0         0         0         0
         0         0         0         0         0         0         0         0
         0         0         0         0         0         0         0         0
         0         0         0         0         0         0         0         0
         0         0         0         0         0         0         0         0
         0         0         0         0         0         0         0         0
         0         0         0         0         0         0         0         0
         0         0         0         0         0         0         0         0
         0         0         0         0         0         0         0         0
         0         0         0         0         0         0         0         0
         0         0         0         0         0         0         0         0
         0         0         0         0         0         0         0         0
         0         0         0         0         0         0         0         0
         0         0         0         0         0         0         0         0
         0         0         0         0         0         0         0         0
         0         0         0         0         0         0         0         0
         0         0         0         0         0         0         0         0
         0         0         0         0         0         0         0         0
         0         0         0         0         0         0         0         0
         0         0         0         0         0         0         0         0
         0         0         0         0         0         0         0         0
         0         0         0         0         0         0         0         0
         0         0         0         0         0         0         0         0
         0         0         0         0         0         0         0         0
         0         0         0         0         0         0         0         0
         0         0         0         0         0         0         0         0
         0         0         0         0         0         0         0         0
         0         0         0         0         0         0         0         0
         0         0         0         0         0         0         0         0
         0         0         0         0         0         0         0         0
         0         0         0         0         0         0         0         0
         0         0         0         0         0         0         0         0
         0         0         0         0         0         0         0         0
         0         0         0         0         0         0         0         0
         0         0         0         0         0         0         0         0
         0         0         0         0         0         0         0         0
         0         0         0         0         0         0         0         0
         0         0         0         0         0         0         0         0
         0         0         0         0         0         0         0         0
         0         0         0         0         0         0         0         0
         0         0         0         0         0         0         0         0
         0         0         0         0         0         0         0         0
         0         0         0         0         0         0         0         0
         0         0         0         0         0         0         0         0
         0         0         0         0         0         0         0         0
         0         0         0         0         0         0         0         0
         0         0         0         0         0         0         0         0
         0         0         0         0         0         0         0         0
         0         0         0         0         0         0         0         0
         0         0         0         0         0         0         0         0
         0         0         0         0         0         0         0         0
         0         0         0         0         0         0         0         0
         0         0         0         0         0         0         0         0
         0         0         0         0         0         0         0         0
         0         0         0         0         0         0         0         0
         0         0         0         0         0         0         0         0
         0         0         0         0         0         0         0         0
         0         0         0         0         0         0         0         0
         0         0         0         0         0         0         0         0
         0         0         0         0         0         0         0         0
         0         0         0         0         0         0         0         0
         0         0         0         0         0         0         0         0
         0         0         0         0         0         0         0         0
         0         0         0         0         0         0         0         0
         0         0         0         0         0         0         0         0
         0         0         0         0         0         0         0         0
         0         0         0         0         0         0         0         0
         0         0         0         0         0         0         0         0
         0         0         0         0         0         0         0         0
         0         0         0         0         0         0         0         0
         0         0         0         0         0         0         0         0
         0         0         0         0         0         0         0         0
         0         0         0         0         0         0         0         0
         0         0         0         0         0         0         0         0
         0         0         0         0         0         0         0         0
         0         0         0         0         0         0         0         0
         0         0         0         0         0         0         0         0
         0         0         0         0         0         0         0         0
         0         0         0         0         0         0         0         0
         0         0         0         0         0         0         0         0
         0         0         0         0         0         0         0         0
         0         0         0         0         0         0         0         0
         0         0         0         0         0         0         0         0
         0         0         0         0         0         0         0         0
         0         0         0         0         0         0         0         0
         0         0         0         0         0         0         0         0
         0         0         0         0         0         0         0         0
         0         0         0         0         0         0         0         0
         0         0         0         0         0         0         0         0
         0         0         0         0         0         0         0         0
         0         0         0         0         0         0         0         0
         0         0         0         0         0         0         0         0
         0         0         0         0         0         0         0         0
         0         0         0         0         0         0         0         0
         0         0         0         0         0         0         0         0
         0         0         0         0         0         0         0         0
         0         0         0         0         0         0         0         0
         0         0         0         0         0         0         0         0
         0         0         0         0         0         0         0         0
         0         0         0         0         0         0         0         0
         0         0         0         0         0         0         0         0
         0         0         0         0         0         0         0         0
         0         0         0         0         0         0         0         0
         0         0         0         0         0         0         0         0
         0         0         0         0         0         0         0         0
         0         0         0         0         0         0         0         0
         0         0         0         0         0         0         0         0
         0         0         0         0         0         0         0         0
         0         0         0         0         0         0         0         0
         0         0         0         0         0         0         0         0
         0         0         0         0         0         0         0         0
         0         0         0         0         0         0         0         0
         0         0         0         0         0         0         0         0
         0         0         0         0         0         0         0         0
         0         0         0         0         0         0         0         0
         0         0         0         0         0         0         0         0
         0         0         0         0         0         0         0         0
         0         0         0         0         0         0         0         0
         0         0         0         0         0         0         0         0
         0         0         0         0         0         0         0         0
         0         0         0         0         0         0         0         0
         0         0         0         0         0         0         0         0
         0         0         0         0         0         0         0         0
         0         0         0         0         0         0         0         0
         0         0         0         0         0         0         0         0
         0         0         0         0         0         0         0         0
         0         0         0         0         0         0         0         0
         0         0         0         0         0         0         0         0
         0         0         0         0         0         0         0         0
         0         0         0         0         0         0         0         0
         0         0         0         0         0         0         0         0
         0         0         0         0         0         0         0         0
         0         0         0         0         0         0         0         0
         0         0         0         0         0         0         0         0
         0         0         0         0         0         0         0         0
         0         0         0         0         0         0         0         0
         0         0         0         0         0         0         0         0
         0         0         0         0         0         0         0         0
         0         0         0         0         0         0         0         0
         0         0         0         0         0         0         0         0
         0         0         0         0         0         0         0         0
         0         0         0         0         0         0         0         0
         0         0         0         0         0         0         0         0
         0         0         0         0         0         0         0         0
         0         0         0         0         0         0         0         0
         0         0         0         0         0         0         0         0
         0         0         0         0         0         0         0         0
         0         0         0         0         0         0         0         0
         0         0         0         0         0         0         0         0
         0         0         0         0         0         0         0         0
         0         0         0         0         0         0         0         0
         0         0         0         0         0         0         0         0
         0         0         0         0         0         0         0         0
         0         0         0         0         0         0         0         0
         0         0         0         0         0         0         0         0
         0         0         0         0         0         0         0         0
         0         0         0         0         0         0         0         0
         0         0         0         0         0         0         0         0
         0         0         0         0         0         0         0         0
         0         0         0         0         0         0         0         0
         0         0         0         0         0         0         0         0
         0         0         0         0         0         0         0         0
         0         0         0         0         0         0         0         0
         0         0         0         0         0         0         0         0
         0         0         0         0         0         0         0         0
         0         0         0         0         0         0         0         0
         0         0         0         0         0         0         0         0
         0         0         0         0         0         0         0         0
         0         0         0         0         0         0         0         0
         0         0         0         0         0         0         0         0
         0         0         0         0         0         0         0         0
         0         0         0         0         0         0         0         0
         0         0         0         0         0         0         0         0
         0         0         0         0         0         0         0         0
         0         0         0         0         0         0         0         0
         0         0         0         0         0         0         0         0
         0         0         0         0         0         0         0         0
         0         0         0         0         0         0         0         0
         0         0         0         0         0         0         0         0
         0         0         0         0         0         0         0         0
         0         0         0         0         0         0         0         0
         0         0         0         0         0         0         0         0
         0         0         0         0         0         0         0         0
         0         0         0         0         0         0         0         0
         0         0         0         0         0         0         0         0
         0         0         0         0         0         0         0         0
         0         0         0         0         0         0         0         0
         0         0         0         0         0         0         0         0
         0         0         0         0         0         0         0         0
         0         0         0         0         0         0         0         0
         0         0         0         0         0         0         0         0
         0         0         0         0         0         0         0         0
         0         0         0         0         0         0         0         0
         0         0         0         0         0         0         0         0
         0         0         0         0         0         0         0         0
         0         0         0         0         0         0         0         0
         0         0         0         0         0         0         0         0
         0         0         0         0         0         0         0         0
         0         0         0         0         0         0         0         0
         0         0         0         0         0         0         0         0
         0         0         0         0         0         0         0         0
         0         0         0         0         0         0         0         0
         0         0         0         0         0         0         0         0
         0         0         0         0         0         0         0         0
         0         0         0         0         0         0         0         0
         0         0         0         0         0         0         0         0
         0         0         0         0         0         0         0         0
         0         0         0         0         0         0         0         0
         0         0         0         0         0         0         0         0
         0         0         0         0         0         0         0         0
         0         0         0         0         0         0         0         0
         0         0         0         0         0         0         0         0
         0         0         0         0         0         0         0         0
         0         0         0         0         0         0         0         0
         0         0         0         0         0         0         0         0
         0         0         0         0         0         0         0         0
         0         0         0         0         0         0         0         0
         0         0         0         0         0         0         0         0
         0         0         0         0         0         0         0         0
         0         0         0         0         0         0         0         0
         0         0         0         0         0         0         0         0
         0         0         0         0         0         0         0         0
         0         0         0         0         0         0         0         0
         0         0         0         0         0         0         0         0
         0         0         0         0         0         0         0         0
         0         0         0         0         0         0         0         0
         0         0         0         0         0         0         0         0
         0         0         0         0         0         0         0         0
         0         0         0         0         0         0         0         0
         0         0         0         0         0         0         0         0
         0         0         0         0         0         0         0         0
         0         0         0         0         0         0         0         0
         0         0         0         0         0         0         0         0
         0         0         0         0         0         0         0         0
         0         0         0         0         0         0         0         0
         0         0         0         0         0         0         0         0
         0         0         0         0         0         0         0         0
         0         0         0         0         0         0         0         0
         0         0         0         0         0         0         0         0
         0         0         0         0         0         0         0         0
         0         0         0         0         0         0         0         0
         0         0         0         0         0         0         0         0
         0         0         0         0         0         0         0         0
         0         0         0         0         0         0         0         0
         0         0         0         0         0         0         0         0
         0         0         0         0         0         0         0         0
         0         0         0         0         0         0         0         0
         0         0         0         0         0         0         0         0
         0         0         0         0         0         0         0         0
         0         0         0         0         0         0         0         0
         0         0         0         0         0         0         0         0
         0         0         0         0         0         0         0         0
         0         0         0         0         0         0         0         0
         0         0         0         0         0         0         0         0
         0         0         0         0         0         0         0         0
         0         0         0         0         0         0         0         0
         0         0         0         0         0         0         0         0
         0         0         0         0         0         0         0         0
         0         0         0         0         0         0         0         0
         0         0         0         0         0         0         0         0
         0         0         0         0         0         0         0         0
         0         0         0         0         0         0         0         0
         0         0         0         0         0         0         0         0
         0         0         0         0         0         0         0         0
         0         0         0         0         0         0         0         0
         0         0         0         0         0         0         0         0
         0         0         0         0         0         0         0         0
         0         0         0         0         0         0         0         0
         0         0         0         0         0         0         0         0
         0         0         0         0         0         0         0         0
         0         0         0         0         0         0         0         0
         0         0         0         0         0         0         0         0
         0         0         0         0         0         0         0         0
         0         0         0         0         0         0         0         0
         0         0         0         0         0         0         0         0
         0         0         0         0         0         0         0         0
         0         0         0         0         0         0         0         0
         0         0         0         0         0         0         0         0
         0         0         0         0         0         0         0         0
         0         0         0         0         0         0         0         0
         0         0         0         0         0         0         0         0
         0         0         0         0         0         0         0         0
         0         0         0         0         0         0         0         0
         0         0         0         0         0         0         0         0
         0         0         0         0         0         0         0         0
         0         0         0         0         0         0         0         0
         0         0         0         0         0         0         0         0
         0         0         0         0         0         0         0         0
         0         0         0         0         0         0         0         0
         0         0         0         0         0         0         0         0
         0         0         0         0         0         0         0         0
         0         0         0         0         0         0         0         0
         0         0         0         0         0         0         0         0
         0         0         0         0         0         0         0         0
         0         0         0         0         0         0         0         0
         0         0         0         0         0         0         0         0
         0         0         0         0         0         0         0         0
         0         0         0         0         0         0         0         0
         0         0         0         0         0         0         0         0
         0         0         0         0         0         0         0         0
         0         0         0         0         0         0         0         0
         0         0         0         0         0         0         0         0
         0         0         0         0         0         0         0         0
         0         0         0         0         0         0         0         0
         0         0         0         0         0         0         0         0
         0         0         0         0         0         0         0         0
         0         0         0         0         0         0         0         0
         0         0         0         0         0         0         0         0
         0         0         0         0         0         0         0         0
         0         0         0         0         0         0         0         0
         0         0         0         0         0         0         0         0
         0         0         0         0         0         0         0         0
         0         0         0         0         0         0         0         0
         0         0         0         0         0         0         0         0
         0         0         0         0         0         0         0         0
         0         0         0         0         0         0         0         0
         0         0         0         0         0         0         0         0
         0         0         0         0         0         0         0         0
         0         0         0         0         0         0         0         0
         0         0         0         0         0         0         0         0
         0         0         0         0         0         0         0         0
         0         0         0         0         0         0         0         0
         0         0         0         0         0         0         0         0
         0         0         0         0         0         0         0         0
         0         0         0         0         0         0         0         0
         0         0         0         0         0         0         0         0
         0         0         0         0         0         0         0         0
         0         0         0         0         0         0         0         0
         0         0         0         0         0         0         0         0
         0         0         0         0         0         0         0         0
         0         0         0         0         0         0         0         0
         0         0         0         0         0         0         0         0
         0         0         0         0         0         0         0         0
         0         0         0         0         0         0         0         0
         0         0         0         0         0         0         0         0
         0         0         0         0         0         0         0         0
         0         0         0         0         0         0         0         0
         0         0         0         0         0         0         0         0
         0         0         0         0         0         0         0         0
         0         0         0         0         0         0         0         0
         0         0         0         0         0         0         0         0
         0         0         0         0         0         0         0         0
         0         0         0         0         0         0         0         0
         0         0         0         0         0         0         0         0
         0         0         0         0         0         0         0         0
         0         0         0         0         0         0         0         0
         0         0         0         0         0         0         0         0
         0         0         0         0         0         0         0         0
         0         0         0         0         0         0         0         0
         0         0         0         0         0         0         0         0
         0         0         0         0         0         0         0         0
         0         0         0         0         0         0         0         0
         0         0         0         0         0         0         0         0
         0         0         0         0         0         0         0         0
         0         0         0         0         0         0         0         0
         0         0         0         0         0         0         0         0
         0         0         0         0         0         0         0         0
         0         0         0         0         0         0         0         0
         0         0         0         0         0         0         0         0
         0         0         0         0         0         0         0         0
         0         0         0         0         0         0         0         0
         0         0         0         0         0         0         0         0
         0         0         0         0         0         0         0         0
         0         0         0         0         0         0         0         0
         0         0         0         0         0         0         0         0
         0         0         0         0         0         0         0         0
         0         0         0         0         0         0         0         0
         0         0         0         0         0         0         0         0
         0         0         0         0         0         0         0         0
         0         0         0         0         0         0         0         0
         0         0         0         0         0         0         0         0
         0         0         0         0         0         0         0         0
         0         0         0         0         0         0         0         0
         0         0         0         0         0         0         0         0
         0         0         0         0         0         0         0         0
         0         0         0         0         0         0         0         0
         0         0         0         0         0         0         0         0
         0         0         0         0         0         0         0         0
         0         0         0         0         0         0         0         0
         0         0         0         0         0         0         0         0
         0         0         0         0         0         0         0         0
         0         0         0         0         0         0         0         0
         0         0         0         0         0         0         0         0
         0         0         0         0         0         0         0         0
         0         0         0         0         0         0         0         0
         0         0         0         0         0         0         0         0
         0         0         0         0         0         0         0         0
         0         0         0         0         0         0         0         0
         0         0         0         0         0         0         0         0
         0         0         0         0         0         0         0         0
         0         0         0         0         0         0         0         0
         0         0         0         0         0         0         0         0
         0         0         0         0         0         0         0         0
         0         0         0         0         0         0         0         0
         0         0         0         0         0         0         0         0
         0         0         0         0         0         0         0         0
         0         0         0         0         0         0         0         0
         0         0         0         0         0         0         0         0
         0         0         0         0         0         0         0         0
         0         0         0         0         0         0         0         0
         0         0         0         0         0         0         0         0
         0         0         0         0         0         0         0         0
         0         0         0         0         0         0         0         0
         0         0         0         0         0         0         0         0
         0         0         0         0         0         0         0         0
         0         0         0         0         0         0         0         0
         0         0         0         0         0         0         0         0
         0         0         0         0         0         0         0         0
         0         0         0         0         0         0         0         0
         0         0         0         0         0         0         0         0
         0         0         0         0         0         0         0         0
         0         0         0         0         0         0         0         0
         0         0         0         0         0         0         0         0
         0         0         0         0         0         0         0         0
         0         0         0         0         0         0         0         0
         0         0         0         0         0         0         0         0
         0         0         0         0         0         0         0         0
         0         0         0         0         0         0         0         0
         0         0         0         0         0         0         0         0
         0         0         0         0         0         0         0         0
         0         0         0         0         0         0         0         0
         0         0         0         0         0         0         0         0
         0         0         0         0         0         0         0         0
         0         0         0         0         0         0         0         0
         0         0         0         0         0         0         0         0
         0         0         0         0         0         0         0         0
         0         0         0         0         0         0         0         0
         0         0         0         0         0         0         0         0
         0         0         0         0         0         0         0         0
         0         0         0         0         0         0         0         0
         0         0         0         0         0         0         0         0
         0         0         0         0         0         0         0         0
         0         0         0         0         0         0         0         0
         0         0         0         0         0         0         0         0
         0         0         0         0         0         0         0         0
         0         0         0         0         0         0         0         0
         0         0         0         0         0         0         0         0
         0         0         0         0         0         0         0         0
         0         0         0         0         0         0         0         0
         0         0         0         0         0         0         0         0
         0         0         0         0         0         0         0         0
         0         0         0         0         0         0         0         0
         0         0         0         0         0         0         0         0
         0         0         0         0         0         0         0         0
         0         0         0         0         0         0         0         0
         0         0         0         0         0         0         0         0
         0         0         0         0         0         0         0         0
         0         0         0         0         0         0         0         0
         0         0         0         0         0         0         0         0
         0         0         0         0         0         0         0         0
         0         0         0         0         0         0         0         0
         0         0         0         0         0         0         0         0
         0         0         0         0         0         0         0         0
         0         0         0         0         0         0         0         0
         0         0         0         0         0         0         0         0
         0         0         0         0         0         0         0         0
         0         0         0         0         0         0         0         0
         0         0         0         0         0         0         0         0
         0         0         0         0         0         0         0         0
         0         0         0         0         0         0         0         0
         0         0         0         0         0         0         0         0
         0         0         0         0         0         0         0         0
         0         0         0         0         0         0         0         0
         0         0         0         0         0         0         0         0
         0         0         0         0         0         0         0         0
         0         0         0         0         0         0         0         0
         0         0         0         0         0         0         0         0
         0         0         0         0         0         0         0         0
         0         0         0         0         0         0         0         0
         0         0         0         0         0         0         0         0
         0         0         0         0         0         0         0         0
         0         0         0         0         0         0         0         0
         0         0         0         0         0         0         0         0
         0         0         0         0         0         0         0         0
         0         0         0         0         0         0         0         0
         0         0         0         0         0         0         0         0
         0         0         0         0         0         0         0         0
         0         0         0         0         0         0         0         0
         0         0         0         0         0         0         0         0
         0         0         0         0         0         0         0         0
         0         0         0         0         0         0         0         0
         0         0         0         0         0         0         0         0
         0         0         0         0         0         0         0         0
         0         0         0         0         0         0         0         0
         0         0         0         0         0         0         0         0
         0         0         0         0         0         0         0         0
         0         0         0         0         0         0         0         0
         0         0         0         0         0         0         0         0
         0         0         0         0         0         0         0         0
         0         0         0         0         0         0         0         0
         0         0         0         0         0         0         0         0
         0         0         0         0         0         0         0         0
         0         0         0         0         0         0         0         0
         0         0         0         0         0         0         0         0
         0         0         0         0         0         0         0         0
         0         0         0         0         0         0         0         0
         0         0         0         0         0         0         0         0
         0         0         0         0         0         0         0         0
         0         0         0         0         0         0         0         0
         0         0         0         0         0         0         0         0
         0         0         0         0         0         0         0         0
         0         0         0         0         0         0         0         0
         0         0         0         0         0         0         0         0
         0         0         0         0         0         0         0         0
         0         0         0         0         0         0         0         0
         0         0         0         0         0         0         0         0
         0         0         0         0         0         0         0         0
         0         0         0         0         0         0         0         0
         0         0         0         0         0         0         0         0
         0         0         0         0         0         0         0         0
         0         0         0         0         0         0         0         0
         0         0         0         0         0         0         0         0
         0         0         0         0         0         0         0         0
         0         0         0         0         0         0         0         0
         0         0         0         0         0         0         0         0
         0         0         0         0         0         0         0         0
         0         0         0         0         0         0         0         0
         0         0         0         0         0         0         0         0
         0         0         0         0         0         0         0         0
         0         0         0         0         0         0         0         0
         0         0         0         0         0         0         0         0
         0         0         0         0         0         0         0         0
         0         0         0         0         0         0         0         0
         0         0         0         0         0         0         0         0
         0         0         0         0         0         0         0         0
         0         0         0         0         0         0         0         0
         0         0         0         0         0         0         0         0
         0         0         0         0         0         0         0         0
         0         0         0         0         0         0         0         0
         0         0         0         0         0         0         0         0
         0         0         0         0         0         0         0         0
         0         0         0         0         0         0         0         0
         0         0         0         0         0         0         0         0
         0         0         0         0         0         0         0         0
         0         0         0         0         0         0         0         0
         0         0         0         0         0         0         0         0
         0         0         0         0         0         0         0         0
         0         0         0         0         0         0         0         0
         0         0         0         0         0         0         0         0
         0         0         0         0         0         0         0         0
         0         0         0         0         0         0         0         0
         0         0         0         0         0         0         0         0
         0         0         0         0         0         0         0         0
         0         0         0         0         0         0         0         0
         0         0         0         0         0         0         0         0
         0         0         0         0         0         0         0         0
         0         0         0         0         0         0         0         0
         0         0         0         0         0         0         0         0
         0         0         0         0         0         0         0         0
         0         0         0         0         0         0         0         0
         0         0         0         0         0         0         0         0
         0         0         0         0         0         0         0         0
         0         0         0         0         0         0         0         0
         0         0         0         0         0         0         0         0
         0         0         0         0         0         0         0         0
         0         0         0         0         0         0         0         0
         0         0         0         0         0         0         0         0
         0         0         0         0         0         0         0         0
         0         0         0         0         0         0         0         0
         0         0         0         0         0         0         0         0
         0         0         0         0         0         0         0         0
         0         0         0         0         0         0         0         0
         0         0         0         0         0         0         0         0
         0         0         0         0         0         0         0         0
         0         0         0         0         0         0         0         0
         0         0         0         0         0         0         0         0
         0         0         0         0         0         0         0         0
         0         0         0         0         0         0         0         0
         0         0         0         0         0         0         0         0
         0         0         0         0         0         0         0         0
         0         0         0         0         0         0         0         0
         0         0         0         0         0         0         0         0
         0         0         0         0         0         0         0         0
         0         0         0         0         0         0         0         0
         0         0         0         0         0         0         0         0
         0         0         0         0         0         0         0         0
         0         0         0         0         0         0         0         0
         0         0         0         0         0         0         0         0
         0         0         0         0         0         0         0         0
         0         0         0         0         0         0         0         0
         0         0         0         0         0         0         0         0
         0         0         0         0         0         0         0         0
         0         0         0         0         0         0         0         0
         0         0         0         0         0         0         0         0
         0         0         0         0         0         0         0         0
         0         0         0         0         0         0         0         0
         0         0         0         0         0         0         0         0
         0         0         0         0         0         0         0         0
         0         0         0         0         0         0         0         0
         0         0         0         0         0         0         0         0
         0         0         0         0         0         0         0         0
         0         0         0         0         0         0         0         0
         0         0         0         0         0         0         0         0
         0         0         0         0         0         0         0         0
         0         0         0         0         0         0         0         0
         0         0         0         0         0         0         0         0
         0         0         0         0         0         0         0         0
         0         0         0         0         0         0         0         0
         0         0         0         0         0         0         0         0
         0         0         0         0         0         0         0         0
         0         0         0         0         0         0         0         0
         0         0         0         0         0         0         0         0
         0         0         0         0         0         0         0         0
         0         0         0         0         0         0         0         0
         0         0         0         0         0         0         0         0
         0         0         0         0         0         0         0         0
         0         0         0         0         0         0         0         0
         0         0         0         0         0         0         0         0
         0         0         0         0         0         0         0         0
         0         0         0         0         0         0         0         0
         0         0         0         0         0         0         0         0
         0         0         0         0         0         0         0         0
         0         0         0         0         0         0         0         0
         0         0         0         0         0         0         0         0
         0         0         0         0         0         0         0         0
         0         0         0         0         0         0         0         0
         0         0         0         0         0         0         0         0
         0         0         0         0         0         0         0         0
         0         0         0         0         0         0         0         0
         0         0         0         0         0         0         0         0
         0         0         0         0         0         0         0         0
         0         0         0         0         0         0         0         0
         0         0         0         0         0         0         0         0
         0         0         0         0         0         0         0         0
         0         0         0         0         0         0         0         0
         0         0         0         0         0         0         0         0
         0         0         0         0         0         0         0         0
         0         0         0         0         0         0         0         0
         0         0         0         0         0         0         0         0
         0         0         0         0         0         0         0         0
         0         0         0         0         0         0         0         0
         0         0         0         0         0         0         0         0
         0         0         0         0         0         0         0         0
         0         0         0         0         0         0         0         0
         0         0         0         0         0         0         0         0
         0         0         0         0         0         0         0         0
         0         0         0         0         0         0         0         0
         0         0         0         0         0         0         0         0
         0         0         0         0         0         0         0         0
         0         0         0         0         0         0         0         0
         0         0         0         0         0         0         0         0
         0         0         0         0         0         0         0         0
         0         0         0         0         0         0         0         0
         0         0         0         0         0         0         0         0
         0         0         0         0         0         0         0         0
         0         0         0         0         0         0         0         0
         0         0         0         0         0         0         0         0
         0         0         0         0         0         0         0         0
         0         0         0         0         0         0         0         0
         0         0         0         0         0         0         0         0
         0         0         0         0         0         0         0         0
         0         0         0         0         0         0         0         0
         0         0         0         0         0         0         0         0
         0         0         0         0         0         0         0         0
         0         0         0         0         0         0         0         0
         0         0         0         0         0         0         0         0
         0         0         0         0         0         0         0         0
         0         0         0         0         0         0         0         0
         0         0         0         0         0         0         0         0
         0         0         0         0         0         0         0         0
         0         0         0         0         0         0         0         0
         0         0         0         0         0         0         0         0
         0         0         0         0         0         0         0         0
         0         0         0         0         0         0         0         0
         0         0         0         0         0         0         0         0
         0         0         0         0         0         0         0         0
         0         0         0         0         0         0         0         0
         0         0         0         0         0         0         0         0
         0         0         0         0         0         0         0         0
         0         0         0         0         0         0         0         0
         0         0         0         0         0         0         0         0
         0         0         0         0         0         0         0         0
         0         0         0         0         0         0         0         0
         0         0         0         0         0         0         0         0
         0         0         0         0         0         0         0         0
         0         0         0         0         0         0         0         0
         0         0         0         0         0         0         0         0
         0         0         0         0         0         0         0         0
         0         0         0         0         0         0         0         0
         0         0         0         0         0         0         0         0
         0         0         0         0         0         0         0         0
         0         0         0         0         0         0         0         0
         0         0         0         0         0         0         0         0
         0         0         0         0         0         0         0         0
         0         0         0         0         0         0         0         0
         0         0         0         0         0         0         0         0
         0         0         0         0         0         0         0         0
         0         0         0         0         0         0         0         0
         0         0         0         0         0         0         0         0
         0         0         0         0         0         0         0         0
         0         0         0         0         0         0         0         0
         0         0         0         0         0         0         0         0
         0         0         0         0         0         0         0         0
         0         0         0         0         0         0         0         0
         0         0         0         0         0         0         0         0
         0         0         0         0         0         0         0         0
         0         0         0         0         0         0         0         0
         0         0         0         0         0         0         0         0
         0         0         0         0         0         0         0         0
         0         0         0         0         0         0         0         0
         0         0         0         0         0         0         0         0
         0         0         0         0         0         0         0         0
         0         0         0         0         0         0         0         0
         0         0         0         0         0         0         0         0
         0         0         0         0         0         0         0         0
         0         0         0         0         0         0         0         0
         0         0         0         0         0         0         0         0
         0         0         0         0         0         0         0         0
         0         0         0         0         0         0         0         0
         0         0         0         0         0         0         0         0
         0         0         0         0         0         0         0         0
         0         0         0         0         0         0         0         0
         0         0         0         0         0         0         0         0
         0         0         0         0         0         0         0         0
         0         0         0         0         0         0         0         0
         0         0         0         0         0         0         0         0
         0         0         0         0         0         0         0         0
         0         0         0         0         0         0         0         0
         0         0         0         0         0         0         0         0
         0         0         0         0         0         0         0         0
         0         0         0         0         0         0         0         0
         0         0         0         0         0         0         0         0
         0         0         0         0         0         0         0         0
         0         0         0         0         0         0         0         0
         0         0         0         0         0         0         0         0
         0         0         0         0         0         0         0         0
         0         0         0         0         0         0         0         0
         0         0         0         0         0         0         0         0
         0         0         0         0         0         0         0         0
         0         0         0         0         0         0         0         0
         0         0         0         0         0         0         0         0
         0         0         0         0         0         0         0         0
         0         0         0         0         0         0         0         0
         0         0         0         0         0         0         0         0
         0         0         0         0         0         0         0         0
         0         0         0         0         0         0         0         0
         0         0         0         0         0         0         0         0
         0         0         0         0         0         0         0         0
         0         0         0         0         0         0         0         0
         0         0         0         0         0         0         0         0
         0         0         0         0         0         0         0         0
         0         0         0         0         0         0         0         0
         0         0         0         0         0         0         0         0
         0         0         0         0         0         0         0         0
         0         0         0         0         0         0         0         0
         0         0         0         0         0         0         0         0
         0         0         0         0         0         0         0         0
         0         0         0         0         0         0         0         0
         0         0         0         0         0         0         0         0
         0         0         0         0         0         0         0         0
         0         0         0         0         0         0         0         0
         0         0         0         0         0         0         0         0
         0         0         0         0         0         0         0         0
         0         0         0         0         0         0         0         0
         0         0         0         0         0         0         0         0
         0         0         0         0         0         0         0         0
         0         0         0         0         0         0         0         0
         0         0         0         0         0         0         0         0
         0         0         0         0         0         0         0         0
         0         0         0         0         0         0         0         0
         0         0         0         0         0         0         0         0
         0         0         0         0         0         0         0         0
         0         0         0         0         0         0         0         0
         0         0         0         0         0         0         0         0
         0         0         0         0         0         0         0         0
         0         0         0         0         0         0         0         0
         0         0         0         0         0         0         0         0
         0         0         0         0         0         0         0         0
         0         0         0         0         0         0         0         0
         0         0         0         0         0         0         0         0
         0         0         0         0         0         0         0         0
         0         0         0         0         0         0         0         0
         0         0         0         0         0         0         0         0
         0         0         0         0         0         0         0         0
         0         0         0         0         0         0         0         0
         0         0         0         0         0         0         0         0
         0         0         0         0         0         0         0         0
         0         0         0         0         0         0         0         0
         0         0         0         0         0         0         0         0
         0         0         0         0         0         0         0         0
         0         0         0         0         0         0         0         0
         0         0         0         0         0         0         0         0
         0         0         0         0         0         0         0         0
         0         0         0         0         0         0         0         0
         0         0         0         0         0         0         0         0
         0         0         0         0         0         0         0         0
         0         0         0         0         0         0         0         0
         0         0         0         0         0         0         0         0
         0         0         0         0         0         0         0         0
         0         0         0         0         0         0         0         0
         0         0         0         0         0         0         0         0
         0         0         0         0         0         0         0         0
         0         0         0         0         0         0         0         0
         0         0         0         0         0         0         0         0
         0         0         0         0         0         0         0         0
         0         0         0         0         0         0         0         0
         0         0         0         0         0         0         0         0
         0         0         0         0         0         0         0         0
         0         0         0         0         0         0         0         0
         0         0         0         0         0         0         0         0
         0         0         0         0         0         0         0         0
         0         0         0         0         0         0         0         0
         0         0         0         0         0         0         0         0
         0         0         0         0         0         0         0         0
         0         0         0         0         0         0         0         0
         0         0         0         0         0         0         0         0
         0         0         0         0         0         0         0         0
         0         0         0         0         0         0         0         0
         0         0         0         0         0         0         0         0
         0         0         0         0         0         0         0         0
         0         0         0         0         0         0         0         0
         0         0         0         0         0         0         0         0
         0         0         0         0         0         0         0         0
         0         0         0         0         0         0         0         0
         0         0         0         0         0         0         0         0
         0         0         0         0         0         0         0         0
         0         0         0         0         0         0         0         0
         0         0         0         0         0         0         0         0
         0         0         0         0         0         0         0         0
         0         0         0         0         0         0         0         0
         0         0         0         0         0         0         0         0
         0         0         0         0         0         0         0         0
         0         0         0         0         0         0         0         0
         0         0         0         0         0         0         0         0
         0         0         0         0         0         0         0         0
         0         0         0         0         0         0         0         0
         0         0         0         0         0         0         0         0
         0         0         0         0         0         0         0         0
         0         0         0         0         0         0         0         0
         0         0         0         0         0         0         0         0
         0         0         0         0         0         0         0         0
         0         0         0         0         0         0         0         0
         0         0         0         0         0         0         0         0
         0         0         0         0         0         0         0         0
         0         0         0         0         0         0         0         0
         0         0         0         0         0         0         0         0
         0         0         0         0         0         0         0         0
         0         0         0         0         0         0         0         0
         0         0         0         0         0         0         0         0
         0         0         0         0         0         0         0         0
         0         0         0         0         0         0         0         0
         0         0         0         0         0         0         0         0
         0         0         0         0         0         0         0         0
         0         0         0         0         0         0         0         0
         0         0         0         0         0         0         0         0
         0         0         0         0         0         0         0         0
         0         0         0         0         0         0         0         0
         0         0         0         0         0         0         0         0
         0         0         0         0         0         0         0         0
         0         0         0         0         0         0         0         0
         0         0         0         0         0         0         0         0
         0         0         0         0         0         0         0         0
         0         0         0         0         0         0         0         0
         0         0         0         0         0         0         0         0
         0         0         0         0         0         0         0         0
         0         0         0         0         0         0         0         0
         0         0         0         0         0         0         0         0
         0         0         0         0         0         0         0         0
         0         0         0         0         0         0         0         0
         0         0         0         0         0         0         0         0
         0         0         0         0         0         0         0         0
         0         0         0         0         0         0         0         0
         0         0         0         0         0         0         0         0
         0         0         0         0         0         0         0         0
         0         0         0         0         0         0         0         0
         0         0         0         0         0         0         0         0
         0         0         0         0         0         0         0         0
         0         0         0         0         0         0         0         0
         0         0         0         0         0         0         0         0
         0         0         0         0         0         0         0         0
         0         0         0         0         0         0         0         0
         0         0         0         0         0         0         0         0
         0         0         0         0         0         0         0         0
         0         0         0         0         0         0         0         0
         0         0         0         0         0         0         0         0
         0         0         0         0         0         0         0         0
         0         0         0         0         0         0         0         0
         0         0         0         0         0         0         0         0
         0         0         0         0         0         0         0         0
         0         0         0         0         0         0         0         0
         0         0         0         0         0         0         0         0
         0         0         0         0         0         0         0         0
         0         0         0         0         0         0         0         0
         0         0         0         0         0         0         0         0
         0         0         0         0         0         0         0         0
         0         0         0         0         0         0         0         0
         0         0         0         0         0         0         0         0
         0         0         0         0         0         0         0         0
         0         0         0         0         0         0         0         0
         0         0         0         0         0         0         0         0
         0         0         0         0         0         0         0         0
         0         0         0         0         0         0         0         0
         0         0         0         0         0         0         0         0
         0         0         0         0         0         0         0         0
         0         0         0         0         0         0         0         0
         0         0         0         0         0         0         0         0
         0         0         0         0         0         0         0         0
         0         0         0         0         0         0         0         0
         0         0         0         0         0         0         0         0
         0         0         0         0         0         0         0         0
         0         0         0         0         0         0         0         0
         0         0         0         0         0         0         0         0
         0         0         0         0         0         0         0         0
         0         0         0         0         0         0         0         0
         0         0         0         0         0         0         0         0
         0         0         0         0         0         0         0         0
         0         0         0         0         0         0         0         0
         0         0         0         0         0         0         0         0
         0         0         0         0         0         0         0         0
         0         0         0         0         0         0         0         0
         0         0         0         0         0         0         0         0
         0         0         0         0         0         0         0         0
         0         0         0         0         0         0         0         0
         0         0         0         0         0         0         0         0
         0         0         0         0         0         0         0         0
         0         0         0         0         0         0         0         0
         0         0         0         0         0         0         0         0
         0         0         0         0         0         0         0         0
         0         0         0         0         0         0         0         0
         0         0         0         0         0         0         0         0
         0         0         0         0         0         0         0         0
         0         0         0         0         0         0         0         0
         0         0         0         0         0         0         0         0
         0         0         0         0         0         0         0         0
         0         0         0         0         0         0         0         0
         0         0         0         0         0         0         0         0
         0         0         0         0         0         0         0         0
         0         0         0         0         0         0         0         0
         0         0         0         0         0         0         0         0
         0         0         0         0         0         0         0         0
         0         0         0         0         0         0         0         0
         0         0         0         0         0         0         0         0
         0         0         0         0         0         0         0         0
         0         0         0         0         0         0         0         0
         0         0         0         0         0         0         0         0
         0         0         0         0         0         0         0         0
         0         0         0         0         0         0         0         0
         0         0         0         0         0         0         0         0
         0         0         0         0         0         0         0         0
         0         0         0         0         0         0         0         0
         0         0         0         0         0         0         0         0
         0         0         0         0         0         0         0         0
         0         0         0         0         0         0         0         0
         0         0         0         0         0         0         0         0
         0         0         0         0         0         0         0         0
         0         0         0         0         0         0         0         0
         0         0         0         0         0         0         0         0
         0         0         0         0         0         0         0         0
         0         0         0         0         0         0         0         0
         0         0         0         0         0         0         0         0
         0         0         0         0         0         0         0         0
         0         0         0         0         0         0         0         0
         0         0         0         0         0         0         0         0
         0         0         0         0         0         0         0         0
         0         0         0         0         0         0         0         0
         0         0         0         0         0         0         0         0
         0         0         0         0         0         0         0         0
         0         0         0         0         0         0         0         0
         0         0         0         0         0         0         0         0
         0         0         0         0         0         0         0         0
         0         0         0         0         0         0         0         0
         0         0         0         0         0         0         0         0
         0         0         0         0         0         0         0         0
         0         0         0         0         0         0         0         0
         0         0         0         0         0         0         0         0
         0         0         0         0         0         0         0         0
         0         0         0         0         0         0         0         0
         0         0         0         0         0         0         0         0
         0         0         0         0         0         0         0         0
         0         0         0         0         0         0         0         0
         0         0         0         0         0         0         0         0
         0         0         0         0         0         0         0         0
         0         0         0         0         0         0         0         0
         0         0         0         0         0         0         0         0
         0         0         0         0         0         0         0         0
         0         0         0         0         0         0         0         0
         0         0         0         0         0         0         0         0
         0         0         0         0         0         0         0         0
         0         0         0         0         0         0         0         0
         0         0         0         0         0         0         0         0
         0         0         0         0         0         0         0         0
         0         0         0         0         0         0         0         0
         0         0         0         0         0         0         0         0
         0         0         0         0         0         0         0         0
         0         0         0         0         0         0         0         0
         0         0         0         0         0         0         0         0
         0         0         0         0         0         0         0         0
         0         0         0         0         0         0         0         0
         0         0         0         0         0         0         0         0
         0         0         0         0         0         0         0         0
         0         0         0         0         0         0         0         0
         0         0         0         0         0         0         0         0
         0         0         0         0         0         0         0         0
         0         0         0         0         0         0         0         0
         0         0         0         0         0         0         0         0
         0         0         0         0         0         0         0         0
         0         0         0         0         0         0         0         0
         0         0         0         0         0         0         0         0
         0         0         0         0         0         0         0         0
         0         0         0         0         0         0         0         0
         0         0         0         0         0         0         0         0
         0         0         0         0         0         0         0         0
         0         0         0         0         0         0         0         0
         0         0         0         0         0         0         0         0
         0         0         0         0         0         0         0         0
         0         0         0         0         0         0         0         0
         0         0         0         0         0         0         0         0
         0         0         0         0         0         0         0         0
         0         0         0         0         0         0         0         0
         0         0         0         0         0         0         0         0
         0         0         0         0         0         0         0         0
         0         0         0         0         0         0         0         0
         0         0         0         0         0         0         0         0
         0         0         0         0         0         0         0         0
         0         0         0         0         0         0         0         0
         0         0         0         0         0         0         0         0
         0         0         0         0         0         0         0         0
         0         0         0         0         0         0         0         0
         0         0         0         0         0         0         0         0
         0         0         0         0         0         0         0         0
         0         0         0         0         0         0         0         0
         0         0         0         0         0         0         0         0
         0         0         0         0         0         0         0         0
         0         0         0         0         0         0         0         0
         0         0         0         0         0         0         0         0
         0         0         0         0         0         0         0         0
         0         0         0         0         0         0         0         0
         0         0         0         0         0         0         0         0
         0         0         0         0         0         0         0         0
         0         0         0         0         0         0         0         0
         0         0         0         0         0         0         0         0
         0         0         0         0         0         0         0         0
         0         0         0         0         0         0         0         0
         0         0         0         0         0         0         0         0
         0         0         0         0         0         0         0         0
         0         0         0         0         0         0         0         0
         0         0         0         0         0         0         0         0
         0         0         0         0         0         0         0         0
         0         0         0         0         0         0         0         0
         0         0         0         0         0         0         0         0
         0         0         0         0         0         0         0         0
         0         0         0         0         0         0         0         0
         0         0         0         0         0         0         0         0
         0         0         0         0         0         0         0         0
         0         0         0         0         0         0         0         0
         0         0         0         0         0         0         0         0
         0         0         0         0         0         0         0         0
         0         0         0         0         0         0         0         0
         0         0         0         0         0         0         0         0
         0         0         0         0         0         0         0         0
         0         0         0         0         0         0         0         0
         0         0         0         0         0         0         0         0
         0         0         0         0         0         0         0         0
         0         0         0         0         0         0         0         0
         0         0         0         0         0         0         0         0
         0         0         0         0         0         0         0         0
         0         0         0         0         0         0         0         0
         0         0         0         0         0         0         0         0
         0         0         0         0         0         0         0         0
         0         0         0         0         0         0         0         0
         0         0         0         0         0         0         0         0
         0         0         0         0         0         0         0         0
         0         0         0         0         0         0         0         0
         0         0         0         0         0         0         0         0
         0         0         0         0         0         0         0         0
         0         0         0         0         0         0         0         0
         0         0         0         0         0         0         0         0
         0         0         0         0         0         0         0         0
         0         0         0         0         0         0         0         0
         0         0         0         0         0         0         0         0
         0         0         0         0         0         0         0         0
         0         0         0         0         0         0         0         0
         0         0         0         0         0         0         0         0
         0         0         0         0         0         0         0         0
         0         0         0         0         0         0         0         0
         0         0         0         0         0         0         0         0
         0         0         0         0         0         0         0         0
         0         0         0         0         0         0         0         0
         0         0         0         0         0         0         0         0
         0         0         0         0         0         0         0         0
         0         0         0         0         0         0         0         0
         0         0         0         0         0         0         0         0
         0         0         0         0         0         0         0         0
         0         0         0         0         0         0         0         0
         0         0         0         0         0         0         0         0
         0         0         0         0         0         0         0         0
         0         0         0         0         0         0         0         0
         0         0         0         0         0         0         0         0
         0         0         0         0         0         0         0         0
         0         0         0         0         0         0         0         0
         0         0         0         0         0         0         0         0
         0         0         0         0         0         0         0         0
         0         0         0         0         0         0         0         0
         0         0         0         0         0         0         0         0
         0         0         0         0         0         0         0         0
         0         0         0         0         0         0         0         0
         0         0         0         0         0         0         0         0
         0         0         0         0         0         0         0         0
         0         0         0         0         0         0         0         0
         0         0         0         0         0         0         0         0
         0         0         0         0         0         0         0         0
         0         0         0         0         0         0         0         0
         0         0         0         0         0         0         0         0
         0         0         0         0         0         0         0         0
         0         0         0         0         0         0         0         0
         0         0         0         0         0         0         0         0
         0         0         0         0         0         0         0         0
         0         0         0         0         0         0         0         0
         0         0         0         0         0         0         0         0
         0         0         0         0         0         0         0         0
         0         0         0         0         0         0         0         0
         0         0         0         0         0         0         0         0
         0         0         0         0         0         0         0         0
         0         0         0         0         0         0         0         0
         0         0         0         0         0         0         0         0
         0         0         0         0         0         0         0         0
         0         0         0         0         0         0         0         0
         0         0         0         0         0         0         0         0
         0         0         0         0         0         0         0         0
         0         0         0         0         0         0         0         0
         0         0         0         0         0         0         0         0
         0         0         0         0         0         0         0         0
         0         0         0         0         0         0         0         0
         0         0         0         0         0         0         0         0
         0         0         0         0         0         0         0         0
         0         0         0         0         0         0         0         0
         0         0         0         0         0         0         0         0
         0         0         0         0         0         0         0         0
         0         0         0         0         0         0         0         0
         0         0         0         0         0         0         0         0
         0         0         0         0         0         0         0         0
         0         0         0         0         0         0         0         0
         0         0         0         0         0         0         0         0
         0         0         0         0         0         0         0         0
         0         0         0         0         0         0         0         0
         0         0         0         0         0         0         0         0
         0         0         0         0         0         0         0         0
         0         0         0         0         0         0         0         0
         0         0         0         0         0         0         0         0
         0         0         0         0         0         0         0         0
         0         0         0         0         0         0         0         0
         0         0         0         0         0         0         0         0
         0         0         0         0         0         0         0         0
         0         0         0         0         0         0         0         0
         0         0         0         0         0         0         0         0
         0         0         0         0         0         0         0         0
         0         0         0         0         0         0         0         0
         0         0         0         0         0         0         0         0
         0         0         0         0         0         0         0         0
         0         0         0         0         0         0         0         0
         0         0         0         0         0         0         0         0
         0         0         0         0         0         0         0         0
         0         0         0         0         0         0         0         0
         0         0         0         0         0         0         0         0
         0         0         0         0         0         0         0         0
         0         0         0         0         0         0         0         0
         0         0         0         0         0         0         0         0
         0         0         0         0         0         0         0         0
         0         0         0         0         0         0         0         0
         0         0         0         0         0         0         0         0
         0         0         0         0         0         0         0         0
         0         0         0         0         0         0         0         0
         0         0         0         0         0         0         0         0
         0         0         0         0         0         0         0         0
         0         0         0         0         0         0         0         0
         0         0         0         0         0         0         0         0
         0         0         0         0         0         0         0         0
         0         0         0         0         0         0         0         0
         0         0         0         0         0         0         0         0
         0         0         0         0         0         0         0         0
         0         0         0         0         0         0         0         0
         0         0         0         0         0         0         0         0
         0         0         0         0         0         0         0         0
         0         0         0         0         0         0         0         0
         0         0         0         0         0         0         0         0
         0         0         0         0         0         0         0         0
         0         0         0         0         0         0         0         0
         0         0         0         0         0         0         0         0
         0         0         0         0         0         0         0         0
         0         0         0         0         0         0         0         0
         0         0         0         0         0         0         0         0
         0         0         0         0         0         0         0         0
         0         0         0         0         0         0         0         0
         0         0         0         0         0         0         0         0
         0         0         0         0         0         0         0         0
         0         0         0         0         0         0         0         0
         0         0         0         0         0         0         0         0
         0         0         0         0         0         0         0         0
         0         0         0         0         0         0         0         0
         0         0         0         0         0         0         0         0
         0         0         0         0         0         0         0         0
         0         0         0         0         0         0         0         0
         0         0         0         0         0         0         0         0
         0         0         0         0         0         0         0         0
         0         0         0         0         0         0         0         0
         0         0         0         0         0         0         0         0
         0         0         0         0         0         0         0         0
         0         0         0         0         0         0         0         0
         0         0         0         0         0         0         0         0
         0         0         0         0         0         0         0         0
         0         0         0         0         0         0         0         0
         0         0         0         0         0         0         0         0
         0         0         0         0         0         0         0         0
         0         0         0         0         0         0         0         0
         0         0         0         0         0         0         0         0
         0         0         0         0         0         0         0         0
         0         0         0         0         0         0         0         0
         0         0         0         0         0         0         0         0
         0         0         0         0         0         0         0         0
         0         0         0         0         0         0         0         0
         0         0         0         0         0         0         0         0
         0         0         0         0         0         0         0         0
         0         0         0         0         0         0         0         0
         0         0         0         0         0         0         0         0
         0         0         0         0         0         0         0         0
         0         0         0         0         0         0         0         0
         0         0         0         0         0         0         0         0
         0         0         0         0         0         0         0         0
         0         0         0         0         0         0         0         0
         0         0         0         0         0         0         0         0
         0         0         0         0         0         0         0         0
         0         0         0         0         0         0         0         0
         0         0         0         0         0         0         0         0
         0         0         0         0         0         0         0         0
         0         0         0         0         0         0         0         0
         0         0         0         0         0         0         0         0
         0         0         0         0         0         0         0         0
         0         0         0         0         0         0         0         0
         0         0         0         0         0         0         0         0
         0         0         0         0         0         0         0         0
         0         0         0         0         0         0         0         0
         0         0         0         0         0         0         0         0
         0         0         0         0         0         0         0         0
         0         0         0         0         0         0         0         0
         0         0         0         0         0         0         0         0
         0         0         0         0         0         0         0         0
         0         0         0         0         0         0         0         0
         0         0         0         0         0         0         0         0
         0         0         0         0         0         0         0         0
         0         0         0         0         0         0         0         0
         0         0         0         0         0         0         0         0
         0         0         0         0         0         0         0         0
         0         0         0         0         0         0         0         0
         0         0         0         0         0         0         0         0
         0         0         0         0         0         0         0         0
         0         0         0         0         0         0         0         0
         0         0         0         0         0         0         0         0
         0         0         0         0         0         0         0         0
         0         0         0         0         0         0         0         0
         0         0         0         0         0         0         0         0
         0         0         0         0         0         0         0         0
         0         0         0         0         0         0         0         0
         0         0         0         0         0         0         0         0
         0         0         0         0         0         0         0         0
         0         0         0         0         0         0         0         0
         0         0         0         0         0         0         0         0
         0         0         0         0         0         0         0         0
         0         0         0         0         0         0         0         0
         0         0         0         0         0         0         0         0
         0         0         0         0         0         0         0         0
         0         0         0         0         0         0         0         0
         0         0         0         0         0         0         0         0
         0         0         0         0         0         0         0         0
         0         0         0         0         0         0         0         0
         0         0         0         0         0         0         0         0
         0         0         0         0         0         0         0         0
         0         0         0         0         0         0         0         0
         0         0         0         0         0         0         0         0
         0         0         0         0         0         0         0         0
         0         0         0         0         0         0         0         0
         0         0         0         0         0         0         0         0
         0         0         0         0         0         0         0         0
         0         0         0         0         0         0         0         0
         0         0         0         0         0         0         0         0
         0         0         0         0         0         0         0         0
         0         0         0         0         0         0         0         0
         0         0         0         0         0         0         0         0
         0         0         0         0         0         0         0         0
         0         0         0         0         0         0         0         0
         0         0         0         0         0         0         0         0
         0         0         0         0         0         0         0         0
         0         0         0         0         0         0         0         0
         0         0         0         0         0         0         0         0
         0         0         0         0         0         0         0         0
         0         0         0         0         0         0         0         0
         0         0         0         0         0         0         0         0
         0         0         0         0         0         0         0         0
         0         0         0         0         0         0         0         0
         0         0         0         0         0         0         0         0
         0         0         0         0         0         0         0         0
         0         0         0         0         0         0         0         0
         0         0         0         0         0         0         0         0
         0         0         0         0         0         0         0         0
         0         0

      3294         0 !NGRP NST2
         0         2         0        16         2         0        27         1         0
        31         1         0        35         1         0        37         1         0
        39         1         0        42         1         0        45         1         0
        48         1         0        51         1         0        54         1         0
        57         1         0        60         1         0        63         1         0
        66         1         0        69         1         0        72         1         0
        75         1         0        79         1         0        84         1         0
        87         1         0        90         1         0        93         1         0
        96         1         0        99         1         0       102         1         0
       104         1         0       106         1         0       109         1         0
       112         1         0       115         1         0       118         1         0
       121         1         0       124         1         0       127         1         0
       131         2         0       137         2         0       140         2         0
       151         1         0       159         1         0       168         1         0
       171         1         0       174         1         0       176         1         0
       178         1         0       181         1         0       183         1         0
       185         1         0       188         1         0       190         1         0
       192         1         0       195         1         0       197         1         0
       199         1         0       202         1         0       205         1         0
       208         1         0       211         1         0       215         1         0
       218         1         0       221         1         0       224         1         0
       227         1         0       230         1         0       233         1         0
       236         1         0       239         1         0       242         1         0
       245         1         0       248         1         0       251         1         0
       254         1         0       257         1         0       260         1         0
       264         2         0       271         2         0       282         1         0
       290         1         0       299         1         0       302         1         0
       305         1         0       307         1         0       309         1         0
       312         1         0       314         1         0       316         1         0
       319         1         0       321         1         0       323         1         0
       326         1         0       328         1         0       330         1         0
       333         1         0       336         1         0       339         1         0
       342         1         0       346         1         0       349         1         0
       352         1         0       355         1         0       358         1         0
       361         1         0       364         1         0       367         1         0
       370         1         0       373         1         0       376         1         0
       379         1         0       382         1         0       385         1         0
       388         1         0       391         1         0       395         1         0
       399         1         0       402         1         0       405         1         0
       408         1         0       410         1         0       412         1         0
       415         1         0       418         1         0       420         0         0
       421         1         0       425         1         0       428         1         0
       431         1         0       433         0         0       434         1         0
       438         1         0       441         1         0       444         1         0
       446         1         0       450         1         0       453         1         0
       456         1         0       459         1         0       461         1         0
       465         1         0       469         2         0       476         2         0
       487         1         0       495         1         0       504         1         0
       507         1         0       510         1         0       512         1         0
       514         1         0       517         1         0       519         1         0
       521         1         0       524         1         0       526         1         0
       528         1         0       531         1         0       533         1         0
       535         1         0       538         1         0       541         1         0
       544         1         0       547         1         0       551         1         0
       554         1         0       557         1         0       560         1         0
       563         1         0       566         1         0       569         1         0
       572         1         0       575         1         0       578         1         0
       581         1         0       584         1         0       587         1         0
       590         1         0       593         1         0       596         1         0
       600         1         0       604         1         0       607         1         0
       610         1         0       613         1         0       615         1         0
       617         1         0       620         1         0       623         1         0
       625         0         0       626         1         0       630         1         0
       633         1         0       636         1         0       638         0         0
       639         1         0       643         1         0       646         1         0
       649         1         0       651         1         0       655         1         0
       658         1         0       661         1         0       664         1         0
       666         1         0       670         1         0       674         2         0
       690         2         0       701         1         0       705         1         0
       709         1         0       711         1         0       713         1         0
       716         1         0       719         1         0       722         1         0
       725         1         0       728         1         0       731         1         0
       734         1         0       737         1         0       740         1         0
       743         1         0       746         1         0       749         1         0
       753         1         0       758         1         0       761         1         0
       764         1         0       767         1         0       770         1         0
       773         1         0       776         1         0       778         1         0
       780         1         0       783         1         0       786         1         0
       789         1         0       792         1         0       795         1         0
       798         1         0       801         1         0       805         1         0
       809         1         0       812         1         0       815         1         0
       818         1         0       820         1         0       822         1         0
       825         1         0       828         1         0       830         0         0
       831         1         0       835         1         0       838         1         0
       841         1         0       843         0         0       844         1         0
       848         1         0       851         1         0       854         1         0
       856         1         0       860         1         0       863         1         0
       866         1         0       869         1         0       871         1         0
       875         1         0       879         2         0       895         2         0
       906         1         0       910         1         0       914         1         0
       916         1         0       918         1         0       921         1         0
       924         1         0       927         1         0       930         1         0
       933         1         0       936         1         0       939         1         0
       942         1         0       945         1         0       948         1         0
       951         1         0       954         1         0       958         1         0
       963         1         0       966         1         0       969         1         0
       972         1         0       975         1         0       978         1         0
       981         1         0       983         1         0       985         1         0
       988         1         0       991         1         0       994         1         0
       997         1         0      1000         1         0      1003         1         0
      1006         1         0      1010         1         0      1014         1         0
      1017         1         0      1020         1         0      1023         1         0
      1025         1         0      1027         1         0      1030         1         0
      1033         1         0      1035         0         0      1036         1         0
      1040         1         0      1043         1         0      1046         1         0
      1048         0         0      1049         1         0      1053         1         0
      1056         1         0      1059         1         0      1061         1         0
      1065         1         0      1068         1         0      1071         1         0
      1074         1         0      1076         1         0      1080         1         0
      1084         1         0      1088         1         0      1091         1         0
      1094         1         0      1097         1         0      1099         1         0
      1101         1         0      1104         1         0      1107         1         0
      1109         0         0      1110         1         0      1114         1         0
      1117         1         0      1120         1         0      1122         0         0
      1123         1         0      1127         1         0      1130         1         0
      1133         1         0      1135         1         0      1139         1         0
      1142         1         0      1145         1         0      1148         1         0
      1150         1         0      1154         1         0      1158         2         0
      1165         2         0      1176         1         0      1184         1         0
      1193         1         0      1196         1         0      1199         1         0
      1201         1         0      1203         1         0      1206         1         0
      1208         1         0      1210         1         0      1213         1         0
      1215         1         0      1217         1         0      1220         1         0
      1222         1         0      1224         1         0      1227         1         0
      1230         1         0      1233         1         0      1236         1         0
      1240         1         0      1243         1         0      1246         1         0
      1249         1         0      1252         1         0      1255         1         0
      1258         1         0      1261         1         0      1264         1         0
      1267         1         0      1270         1         0      1273         1         0
      1276         1         0      1279         1         0      1282         1         0
      1285         1         0      1289         1         0      1293         1         0
      1296         1         0      1299         1         0      1302         1         0
      1304         1         0      1306         1         0      1309         1         0
      1312         1         0      1314         0         0      1315         1         0
      1319         1         0      1322         1         0      1325         1         0
      1327         0         0      1328         1         0      1332         1         0
      1335         1         0      1338         1         0      1340         1         0
      1344         1         0      1347         1         0      1350         1         0
      1353         1         0      1355         1         0      1359         1         0
      1363         2         0      1379         2         0      1390         1         0
      1398         1         0      1407         1         0      1410         1         0
      1413         1         0      1416         1         0      1419         1         0
      1422         1         0      1425         1         0      1427         1         0
      1429         1         0      1432         1         0      1434         1         0
      1436         1         0      1439         1         0      1442         1         0
      1445         1         0      1448         1         0      1452         1         0
      1455         1         0      1458         1         0      1461         1         0
      1464         1         0      1467         1         0      1470         1         0
      1473         1         0      1476         1         0      1479         1         0
      1482         1         0      1485         1         0      1488         1         0
      1491         1         0      1494         1         0      1497         1         0
      1501         2         0      1517         2         0      1528         1         0
      1536         1         0      1545         1         0      1548         1         0
      1551         1         0      1553         1         0      1555         1         0
      1558         1         0      1560         1         0      1562         1         0
      1565         1         0      1567         1         0      1569         1         0
      1572         1         0      1574         1         0      1576         1         0
      1579         1         0      1582         2         0      1585         1         0
      1588         2         0      1592         1         0      1595         1         0
      1598         1         0      1601         1         0      1604         1         0
      1607         1         0      1610         1         0      1613         1         0
      1616         1         0      1619         1         0      1622         1         0
      1625         1         0      1628         1         0      1631         1         0
      1634         1         0      1637         1         0      1641         2         0
      1657         2         0      1668         1         0      1676         1         0
      1685         1         0      1688         1         0      1691         1         0
      1693         1         0      1695         1         0      1698         1         0
      1700         1         0      1702         1         0      1705         1         0
      1707         1         0      1709         1         0      1712         1         0
      1714         1         0      1716         1         0      1719         1         0
      1722         2         0      1725         1         0      1728         2         0
      1732         1         0      1735         1         0      1738         1         0
      1741         1         0      1744         1         0      1747         1         0
      1750         1         0      1753         1         0      1756         1         0
      1759         1         0      1762         1         0      1765         1         0
      1768         1         0      1771         1         0      1774         1         0
      1777         1         0      1781         2         0      1797         2         0
      1808         1         0      1816         1         0      1825         1         0
      1828         1         0      1831         1         0      1834         1         0
      1837         1         0      1840         1         0      1843         1         0
      1845         1         0      1847         1         0      1850         1         0
      1852         1         0      1854         1         0      1857         1         0
      1860         1         0      1863         1         0      1866         1         0
      1870         1         0      1873         1         0      1876         1         0
      1879         1         0      1882         1         0      1885         1         0
      1888         1         0      1891         1         0      1894         1         0
      1897         1         0      1900         1         0      1903         1         0
      1906         1         0      1909         1         0      1912         1         0
      1915         1         0      1919         2         0      1926         2         0
      1937         1         0      1945         1         0      1954         1         0
      1957         1         0      1960         1         0      1962         1         0
      1964         1         0      1967         1         0      1969         1         0
      1971         1         0      1974         1         0      1976         1         0
      1978         1         0      1981         1         0      1983         1         0
      1985         1         0      1988         1         0      1991         1         0
      1994         1         0      1997         1         0      2001         1         0
      2004         1         0      2007         1         0      2010         1         0
      2013         1         0      2016         1         0      2019         1         0
      2022         1         0      2025         1         0      2028         1         0
      2031         1         0      2034         1         0      2037         1         0
      2040         1         0      2043         1         0      2046         1         0
      2050         1         0      2054         1         0      2057         1         0
      2060         1         0      2063         1         0      2065         1         0
      2067         1         0      2070         1         0      2073         1         0
      2075         0         0      2076         1         0      2080         1         0
      2083         1         0      2086         1         0      2088         0         0
      2089         1         0      2093         1         0      2096         1         0
      2099         1         0      2101         1         0      2105         1         0
      2108         1         0      2111         1         0      2114         1         0
      2116         1         0      2120         1         0      2124         1         0
      2128         1         0      2131         1         0      2134         1         0
      2137         1         0      2139         1         0      2141         1         0
      2144         1         0      2147         1         0      2149         0         0
      2150         1         0      2154         1         0      2157         1         0
      2160         1         0      2162         0         0      2163         1         0
      2167         1         0      2170         1         0      2173         1         0
      2175         1         0      2179         1         0      2182         1         0
      2185         1         0      2188         1         0      2190         1         0
      2194         1         0      2198         2         0      2214         2         0
      2225         1         0      2229         1         0      2233         1         0
      2235         1         0      2237         1         0      2240         1         0
      2243         1         0      2246         1         0      2249         1         0
      2252         1         0      2255         1         0      2258         1         0
      2261         1         0      2264         1         0      2267         1         0
      2270         1         0      2273         1         0      2277         1         0
      2282         1         0      2285         1         0      2288         1         0
      2291         1         0      2294         1         0      2297         1         0
      2300         1         0      2302         1         0      2304         1         0
      2307         1         0      2310         1         0      2313         1         0
      2316         1         0      2319         1         0      2322         1         0
      2325         1         0      2329         2         0      2345         2         0
      2356         1         0      2364         1         0      2373         1         0
      2376         1         0      2379         1         0      2382         1         0
      2385         1         0      2388         1         0      2391         1         0
      2393         1         0      2395         1         0      2398         1         0
      2401         1         0      2404         1         0      2407         1         0
      2410         1         0      2413         1         0      2416         1         0
      2420         1         0      2423         1         0      2426         1         0
      2429         1         0      2432         1         0      2435         1         0
      2438         1         0      2441         1         0      2444         1         0
      2447         1         0      2450         1         0      2453         1         0
      2456         1         0      2459         1         0      2463         2         0
      2469         2         0      2472         2         0      2483         1         0
      2491         1         0      2500         1         0      2503         1         0
      2506         1         0      2508         1         0      2510         1         0
      2513         1         0      2515         1         0      2517         1         0
      2520         1         0      2522         1         0      2524         1         0
      2527         1         0      2529         1         0      2531         1         0
      2534         1         0      2537         1         0      2540         1         0
      2543         1         0      2547         1         0      2550         1         0
      2553         1         0      2556         1         0      2559         1         0
      2562         1         0      2565         1         0      2568         1         0
      2571         1         0      2574         1         0      2577         1         0
      2580         1         0      2583         1         0      2586         1         0
      2589         1         0      2592         1         0      2596         2         0
      2612         2         0      2623         1         0      2627         1         0
      2631         1         0      2633         1         0      2635         1         0
      2638         1         0      2641         1         0      2644         1         0
      2647         1         0      2650         1         0      2653         1         0
      2656         1         0      2659         1         0      2662         1         0
      2665         1         0      2668         1         0      2671         1         0
      2675         1         0      2680         1         0      2683         1         0
      2686         1         0      2689         1         0      2692         1         0
      2695         1         0      2698         1         0      2700         1         0
      2702         1         0      2705         1         0      2708         1         0
      2711         1         0      2714         1         0      2717         1         0
      2720         1         0      2723         1         0      2727         2         0
      2734         2         0      2745         1         0      2753         1         0
      2762         1         0      2765         1         0      2768         1         0
      2770         1         0      2772         1         0      2775         1         0
      2777         1         0      2779         1         0      2782         1         0
      2784         1         0      2786         1         0      2789         1         0
      2791         1         0      2793         1         0      2796         1         0
      2799         1         0      2802         1         0      2805         1         0
      2809         1         0      2812         1         0      2815         1         0
      2818         1         0      2821         1         0      2824         1         0
      2827         1         0      2830         1         0      2833         1         0
      2836         1         0      2839         1         0      2842         1         0
      2845         1         0      2848         1         0      2851         1         0
      2854         1         0      2858         2         0      2865         2         0
      2876         1         0      2884         1         0      2893         1         0
      2896         1         0      2899         1         0      2902         1         0
      2905         1         0      2908         1         0      2911         1         0
      2913         1         0      2915         1         0      2918         1         0
      2921         1         0      2924         1         0      2927         1         0
      2930         1         0      2933         1         0      2936         1         0
      2940         1         0      2943         1         0      2946         1         0
      2949         1         0      2952         1         0      2955         1         0
      2958         1         0      2961         1         0      2964         1         0
      2967         1         0      2970         1         0      2973         1         0
      2976         1         0      2979         1         0      2982         1         0
      2985         1         0      2989         2         0      3005         2         0
      3016         1         0      3020         1         0      3024         1         0
      3026         1         0      3028         1         0      3031         1         0
      3034         1         0      3037         1         0      3040         1         0
      3043         1         0      3046         1         0      3049         1         0
      3052         1         0      3055         1         0      3058         1         0
      3061         1         0      3064         1         0      3068         1         0
      3073         1         0      3076         1         0      3079         1         0
      3082         1         0      3085         1         0      3088         1         0
      3091         1         0      3093         1         0      3095         1         0
      3098         1         0      3101         1         0      3104         1         0
      3107         1         0      3110         1         0      3113         1         0
      3116         1         0      3120         2         0      3136         2         0
      3147         1         0      3151         1         0      3155         1         0
      3157         1         0      3159         1         0      3162         1         0
      3165         1         0      3168         1         0      3171         1         0
      3174         1         0      3177         1         0      3180         1         0
      3183         1         0      3186         1         0      3189         1         0
      3192         1         0      3195         1         0      3199         1         0
      3204         1         0      3207         1         0      3210         1         0
      3213         1         0      3216         1         0      3219         1         0
      3222         1         0      3224         1         0      3226         1         0
      3229         1         0      3232         1         0      3235         1         0
      3238         1         0      3241         1         0      3244         1         0
      3247         1         0      3251         2         0      3267         2         0
      3278         1         0      3282         1         0      3286         1         0
      3288         1         0      3290         1         0      3293         1         0
      3296         1         0      3299         1         0      3302         1         0
      3305         1         0      3308         1         0      3311         1         0
      3314         1         0      3317         1         0      3320         1         0
      3323         1         0      3326         1         0      3330         1         0
      3335         1         0      3338         1         0      3341         1         0
      3344         1         0      3347         1         0      3350         1         0
      3353         1         0      3355         1         0      3357         1         0
      3360         1         0      3363         1         0      3366         1         0
      3369         1         0      3372         1         0      3375         1         0
      3378         1         0      3382         2         0      3389         2         0
      3400         1         0      3408         1         0      3417         1         0
      3420         1         0      3423         1         0      3426         1         0
      3429         1         0      3432         1         0      3435         1         0
      3437         1         0      3439         1         0      3442         1         0
      3445         1         0      3448         1         0      3451         1         0
      3454         1         0      3457         1         0      3460         1         0
      3464         1         0      3467         1         0      3470         1         0
      3473         1         0      3476         1         0      3479         1         0
      3482         1         0      3485         1         0      3488         1         0
      3491         1         0      3494         1         0      3497         1         0
      3500         1         0      3503         1         0      3506         1         0
      3509         1         0      3513         2         0      3529         2         0
      3540         1         0      3544         1         0      3548         1         0
      3550         1         0      3552         1         0      3555         1         0
      3558         1         0      3561         1         0      3564         1         0
      3567         1         0      3570         1         0      3573         1         0
      3576         1         0      3579         1         0      3582         1         0
      3585         1         0      3588         1         0      3592         1         0
      3597         1         0      3600         1         0      3603         1         0
      3606         1         0      3609         1         0      3612         1         0
      3615         1         0      3617         1         0      3619         1         0
      3622         1         0      3625         1         0      3628         1         0
      3631         1         0      3634         1         0      3637         1         0
      3640         1         0      3644         1         0      3648         1         0
      3651         1         0      3654         1         0      3657         1         0
      3659         1         0      3661         1         0      3664         1         0
      3667         1         0      3669         0         0      3670         1         0
      3674         1         0      3677         1         0      3680         1         0
      3682         0         0      3683         1         0      3687         1         0
      3690         1         0      3693         1         0      3695         1         0
      3699         1         0      3702         1         0      3705         1         0
      3708         1         0      3710         1         0      3714         1         0
      3718         2         0      3725         2         0      3736         1         0
      3744         1         0      3753         1         0      3756         1         0
      3759         1         0      3761         1         0      3763         1         0
      3766         1         0      3768         1         0      3770         1         0
      3773         1         0      3775         1         0      3777         1         0
      3780         1         0      3782         1         0      3784         1         0
      3787         1         0      3790         1         0      3793         1         0
      3796         1         0      3800         1         0      3803         1         0
      3806         1         0      3809         1         0      3812         1         0
      3815         1         0      3818         1         0      3821         1         0
      3824         1         0      3827         1         0      3830         1         0
      3833         1         0      3836         1         0      3839         1         0
      3842         1         0      3845         1         0      3849         2         0
      3855         2         0      3858         2         0      3869         1         0
      3877         1         0      3886         1         0      3889         1         0
      3892         1         0      3894         1         0      3896         1         0
      3899         1         0      3901         1         0      3903         1         0
      3906         1         0      3908         1         0      3910         1         0
      3913         1         0      3915         1         0      3917         1         0
      3920         1         0      3923         1         0      3926         1         0
      3929         1         0      3933         1         0      3936         1         0
      3939         1         0      3942         1         0      3945         1         0
      3948         1         0      3951         1         0      3954         1         0
      3957         1         0      3960         1         0      3963         1         0
      3966         1         0      3969         1         0      3972         1         0
      3975         1         0      3978         1         0      3982         2         0
      3998         2         0      4009         1         0      4017         1         0
      4026         1         0      4029         1         0      4032         1         0
      4034         1         0      4036         1         0      4039         1         0
      4041         1         0      4043         1         0      4046         1         0
      4048         1         0      4050         1         0      4053         1         0
      4055         1         0      4057         1         0      4060         1         0
      4063         2         0      4066         1         0      4069         2         0
      4073         1         0      4076         1         0      4079         1         0
      4082         1         0      4085         1         0      4088         1         0
      4091         1         0      4094         1         0      4097         1         0
      4100         1         0      4103         1         0      4106         1         0
      4109         1         0      4112         1         0      4115         1         0
      4118         1         0      4122         2         0      4138         2         0
      4149         1         0      4157         1         0      4166         1         0
      4169         1         0      4172         1         0      4175         1         0
      4178         1         0      4181         1         0      4184         1         0
      4186         1         0      4188         1         0      4191         1         0
      4194         1         0      4197         1         0      4200         1         0
      4203         1         0      4206         1         0      4209         1         0
      4213         1         0      4216         1         0      4219         1         0
      4222         1         0      4225         1         0      4228         1         0
      4231         1         0      4234         1         0      4237         1         0
      4240         1         0      4243         1         0      4246         1         0
      4249         1         0      4252         1         0      4256         2         0
      4263         2         0      4274         1         0      4282         1         0
      4291         1         0      4294         1         0      4297         1         0
      4299         1         0      4301         1         0      4304         1         0
      4306         1         0      4308         1         0      4311         1         0
      4313         1         0      4315         1         0      4318         1         0
      4320         1         0      4322         1         0      4325         1         0
      4328         1         0      4331         1         0      4334         1         0
      4338         1         0      4341         1         0      4344         1         0
      4347         1         0      4350         1         0      4353         1         0
      4356         1         0      4359         1         0      4362         1         0
      4365         1         0      4368         1         0      4371         1         0
      4374         1         0      4377         1         0      4380         1         0
      4383         1         0      4387         2         0      4394         2         0
      4405         1         0      4413         1         0      4422         1         0
      4425         1         0      4428         1         0      4431         1         0
      4434         1         0      4437         1         0      4440         1         0
      4442         1         0      4444         1         0      4447         1         0
      4450         1         0      4453         1         0      4456         1         0
      4459         1         0      4462         1         0      4465         1         0
      4469         1         0      4472         1         0      4475         1         0
      4478         1         0      4481         1         0      4484         1         0
      4487         1         0      4490         1         0      4493         1         0
      4496         1         0      4499         1         0      4502         1         0
      4505         1         0      4508         1         0      4511         1         0
      4514         1         0      4518         2         0      4524         2         0
      4527         2         0      4538         1         0      4546         1         0
      4555         1         0      4558         1         0      4561         1         0
      4563         1         0      4565         1         0      4568         1         0
      4570         1         0      4572         1         0      4575         1         0
      4577         1         0      4579         1         0      4582         1         0
      4584         1         0      4586         1         0      4589         1         0
      4592         1         0      4595         1         0      4598         1         0
      4602         1         0      4605         1         0      4608         1         0
      4611         1         0      4614         1         0      4617         1         0
      4620         1         0      4623         1         0      4626         1         0
      4629         1         0      4632         1         0      4635         1         0
      4638         1         0      4641         1         0      4644         1         0
      4647         1         0      4651         1         0      4655         1         0
      4659         1         0      4663         1         0      4667         1         0
      4671         2         0      4681         1         0      4689         1         0
      4698         1         0      4701         1         0      4704         1         0
      4706         1         0      4708         1         0      4711         1         0
      4713         1         0      4715         1         0      4718         1         0
      4720         1         0      4722         1         0      4725         1         0
      4727         1         0      4729         1         0      4732         1         0
      4735         1         0      4738         1         0      4741         1         0
      4745         1         0      4748         1         0      4751         1         0
      4754         1         0      4757         1         0      4760         1         0
      4763         1         0      4766         1         0      4769         1         0
      4772         1         0      4775         1         0      4778         1         0
      4781         1         0      4784         1         0      4787         1         0
      4790         1         0      4794         1         0      4798         1         0
      4801         1         0      4804         1         0      4807         1         0
      4809         1         0      4811         1         0      4814         1         0
      4817         1         0      4819         0         0      4820         1         0
      4824         1         0      4827         1         0      4830         1         0
      4832         0         0      4833         1         0      4837         1         0
      4840         1         0      4843         1         0      4845         1         0
      4849         1         0      4852         1         0      4855         1         0
      4858         1         0      4860         1         0      4864         1         0
      4868         1         0      4872         1         0      4875         1         0
      4878         1         0      4881         1         0      4883         1         0
      4885         1         0      4888         1         0      4891         1         0
      4893         0         0      4894         1         0      4898         1         0
      4901         1         0      4904         1         0      4906         0         0
      4907         1         0      4911         1         0      4914         1         0
      4917         1         0      4919         1         0      4923         1         0
      4926         1         0      4929         1         0      4932         1         0
      4934         1         0      4938         1         0      4942         2         0
      4958         2         0      4969         1         0      4977         1         0
      4986         1         0      4989         1         0      4992         1         0
      4994         1         0      4996         1         0      4999         1         0
      5001         1         0      5003         1         0      5006         1         0
      5008         1         0      5010         1         0      5013         1         0
      5015         1         0      5017         1         0      5020         1         0
      5023         2         0      5026         1         0      5029         2         0
      5033         1         0      5036         1         0      5039         1         0
      5042         1         0      5045         1         0      5048         1         0
      5051         1         0      5054         1         0      5057         1         0
      5060         1         0      5063         1         0      5066         1         0
      5069         1         0      5072         1         0      5075         1         0
      5078         1         0      5082         1         0      5086         1         0
      5089         1         0      5092         1         0      5095         1         0
      5097         1         0      5099         1         0      5102         1         0
      5105         1         0      5107         0         0      5108         1         0
      5112         1         0      5115         1         0      5118         1         0
      5120         0         0      5121         1         0      5125         1         0
      5128         1         0      5131         1         0      5133         1         0
      5137         1         0      5140         1         0      5143         1         0
      5146         1         0      5148         1         0      5152         1         0
      5156         2         0      5172         2         0      5183         1         0
      5191         1         0      5200         1         0      5203         1         0
      5206         1         0      5209         1         0      5212         1         0
      5215         1         0      5218         1         0      5220         1         0
      5222         1         0      5225         1         0      5227         1         0
      5229         1         0      5232         1         0      5235         1         0
      5238         1         0      5241         1         0      5245         1         0
      5248         1         0      5251         1         0      5254         1         0
      5257         1         0      5260         1         0      5263         1         0
      5266         1         0      5269         1         0      5272         1         0
      5275         1         0      5278         1         0      5281         1         0
      5284         1         0      5287         1         0      5290         1         0
      5294         1         0      5298         1         0      5301         1         0
      5304         1         0      5307         1         0      5309         1         0
      5311         1         0      5314         1         0      5317         1         0
      5319         0         0      5320         1         0      5324         1         0
      5327         1         0      5330         1         0      5332         0         0
      5333         1         0      5337         1         0      5340         1         0
      5343         1         0      5345         1         0      5349         1         0
      5352         1         0      5355         1         0      5358         1         0
      5360         1         0      5364         1         0      5368         2         0
      5384         2         0      5395         1         0      5403         1         0
      5412         1         0      5415         1         0      5418         1         0
      5421         1         0      5424         1         0      5427         1         0
      5430         1         0      5432         1         0      5434         1         0
      5437         1         0      5439         1         0      5441         1         0
      5444         1         0      5447         1         0      5450         1         0
      5453         1         0      5457         1         0      5460         1         0
      5463         1         0      5466         1         0      5469         1         0
      5472         1         0      5475         1         0      5478         1         0
      5481         1         0      5484         1         0      5487         1         0
      5490         1         0      5493         1         0      5496         1         0
      5499         1         0      5502         1         0      5506         1         0
      5510         1         0      5513         1         0      5516         1         0
      5519         1         0      5521         1         0      5523         1         0
      5526         1         0      5529         1         0      5531         0         0
      5532         1         0      5536         1         0      5539         1         0
      5542         1         0      5544         0         0      5545         1         0
      5549         1         0      5552         1         0      5555         1         0
      5557         1         0      5561         1         0      5564         1         0
      5567         1         0      5570         1         0      5572         1         0
      5576         1         0      5580         2         0      5596         2         0
      5607         1         0      5611         1         0      5615         1         0
      5617         1         0      5619         1         0      5622         1         0
      5625         1         0      5628         1         0      5631         1         0
      5634         1         0      5637         1         0      5640         1         0
      5643         1         0      5646         1         0      5649         1         0
      5652         1         0      5655         1         0      5659         1         0
      5664         1         0      5667         1         0      5670         1         0
      5673         1         0      5676         1         0      5679         1         0
      5682         1         0      5684         1         0      5686         1         0
      5689         1         0      5692         1         0      5695         1         0
      5698         1         0      5701         1         0      5704         1         0
      5707         1         0      5711         1         0      5715         1         0
      5718         1         0      5721         1         0      5724         1         0
      5726         1         0      5728         1         0      5731         1         0
      5734         1         0      5736         0         0      5737         1         0
      5741         1         0      5744         1         0      5747         1         0
      5749         0         0      5750         1         0      5754         1         0
      5757         1         0      5760         1         0      5762         1         0
      5766         1         0      5769         1         0      5772         1         0
      5775         1         0      5777         1         0      5781         1         0
      5785         2         0      5801         2         0      5812         1         0
      5816         1         0      5820         1         0      5822         1         0
      5824         1         0      5827         1         0      5830         1         0
      5833         1         0      5836         1         0      5839         1         0
      5842         1         0      5845         1         0      5848         1         0
      5851         1         0      5854         1         0      5857         1         0
      5860         1         0      5864         1         0      5869         1         0
      5872         1         0      5875         1         0      5878         1         0
      5881         1         0      5884         1         0      5887         1         0
      5889         1         0      5891         1         0      5894         1         0
      5897         1         0      5900         1         0      5903         1         0
      5906         1         0      5909         1         0      5912         1         0
      5916         1         0      5920         1         0      5923         1         0
      5926         1         0      5929         1         0      5931         1         0
      5933         1         0      5936         1         0      5939         1         0
      5941         0         0      5942         1         0      5946         1         0
      5949         1         0      5952         1         0      5954         0         0
      5955         1         0      5959         1         0      5962         1         0
      5965         1         0      5967         1         0      5971         1         0
      5974         1         0      5977         1         0      5980         1         0
      5982         1         0      5986         1         0      5990         1         0
      5994         1         0      5997         1         0      6000         1         0
      6003         1         0      6005         1         0      6007         1         0
      6010         1         0      6013         1         0      6015         0         0
      6016         1         0      6020         1         0      6023         1         0
      6026         1         0      6028         0         0      6029         1         0
      6033         1         0      6036         1         0      6039         1         0
      6041         1         0      6045         1         0      6048         1         0
      6051         1         0      6054         1         0      6056         1         0
      6060         1         0      6064         2         0      6080         2         0
      6091         1         0      6095         1         0      6099         1         0
      6101         1         0      6103         1         0      6106         1         0
      6109         1         0      6112         1         0      6115         1         0
      6118         1         0      6121         1         0      6124         1         0
      6127         1         0      6130         1         0      6133         1         0
      6136         1         0      6139         1         0      6143         1         0
      6148         1         0      6151         1         0      6154         1         0
      6157         1         0      6160         1         0      6163         1         0
      6166         1         0      6168         1         0      6170         1         0
      6173         1         0      6176         1         0      6179         1         0
      6182         1         0      6185         1         0      6188         1         0
      6191         1         0      6195         2         0      6211         2         0
      6222         1         0      6230         1         0      6239         1         0
      6242         1         0      6245         1         0      6247         1         0
      6249         1         0      6252         1         0      6254         1         0
      6256         1         0      6259         1         0      6261         1         0
      6263         1         0      6266         1         0      6268         1         0
      6270         1         0      6273         1         0      6276         2         0
      6279         1         0      6282         2         0      6286         1         0
      6289         1         0      6292         1         0      6295         1         0
      6298         1         0      6301         1         0      6304         1         0
      6307         1         0      6310         1         0      6313         1         0
      6316         1         0      6319         1         0      6322         1         0
      6325         1         0      6328         1         0      6331         1         0
      6335         2         0      6351         2         0      6362         1         0
      6366         1         0      6370         1         0      6372         1         0
      6374         1         0      6377         1         0      6380         1         0
      6383         1         0      6386         1         0      6389         1         0
      6392         1         0      6395         1         0      6398         1         0
      6401         1         0      6404         1         0      6407         1         0
      6410         1         0      6414         1         0      6419         1         0
      6422         1         0      6425         1         0      6428         1         0
      6431         1         0      6434         1         0      6437         1         0
      6439         1         0      6441         1         0      6444         1         0
      6447         1         0      6450         1         0      6453         1         0
      6456         1         0      6459         1         0      6462         1         0
      6466         2         0      6482         2         0      6493         1         0
      6501         1         0      6510         1         0      6513         1         0
      6516         1         0      6519         1         0      6522         1         0
      6525         1         0      6528         1         0      6530         1         0
      6532         1         0      6535         1         0      6537         1         0
      6539         1         0      6542         1         0      6545         1         0
      6548         1         0      6551         1         0      6555         1         0
      6558         1         0      6561         1         0      6564         1         0
      6567         1         0      6570         1         0      6573         1         0
      6576         1         0      6579         1         0      6582         1         0
      6585         1         0      6588         1         0      6591         1         0
      6594         1         0      6597         1         0      6600         1         0
      6604         2         0      6611         2         0      6622         1         0
      6630         1         0      6639         1         0      6642         1         0
      6645         1         0      6647         1         0      6649         1         0
      6652         1         0      6654         1         0      6656         1         0
      6659         1         0      6661         1         0      6663         1         0
      6666         1         0      6668         1         0      6670         1         0
      6673         1         0      6676         1         0      6679         1         0
      6682         1         0      6686         1         0      6689         1         0
      6692         1         0      6695         1         0      6698         1         0
      6701         1         0      6704         1         0      6707         1         0
      6710         1         0      6713         1         0      6716         1         0
      6719         1         0      6722         1         0      6725         1         0
      6728         1         0      6731         1         0      6735         2         0
      6742         2         0      6753         1         0      6761         1         0
      6770         1         0      6773         1         0      6776         1         0
      6778         1         0      6780         1         0      6783         1         0
      6785         1         0      6787         1         0      6790         1         0
      6792         1         0      6794         1         0      6797         1         0
      6799         1         0      6801         1         0      6804         1         0
      6807         1         0      6810         1         0      6813         1         0
      6817         1         0      6820         1         0      6823         1         0
      6826         1         0      6829         1         0      6832         1         0
      6835         1         0      6838         1         0      6841         1         0
      6844         1         0      6847         1         0      6850         1         0
      6853         1         0      6856         1         0      6859         1         0
      6862         1         0      6866         2         0      6873         2         0
      6884         1         0      6892         1         0      6901         1         0
      6904         1         0      6907         1         0      6910         1         0
      6913         1         0      6916         1         0      6919         1         0
      6921         1         0      6923         1         0      6926         1         0
      6929         1         0      6932         1         0      6935         1         0
      6938         1         0      6941         1         0      6944         1         0
      6948         1         0      6951         1         0      6954         1         0
      6957         1         0      6960         1         0      6963         1         0
      6966         1         0      6969         1         0      6972         1         0
      6975         1         0      6978         1         0      6981         1         0
      6984         1         0      6987         1         0      6990         1         0
      6993         1         0      6997         2         0      7004         2         0
      7015         1         0      7023         1         0      7032         1         0
      7035         1         0      7038         1         0      7040         1         0
      7042         1         0      7045         1         0      7047         1         0
      7049         1         0      7052         1         0      7054         1         0
      7056         1         0      7059         1         0      7061         1         0
      7063         1         0      7066         1         0      7069         1         0
      7072         1         0      7075         1         0      7079         1         0
      7082         1         0      7085         1         0      7088         1         0
      7091         1         0      7094         1         0      7097         1         0
      7100         1         0      7103         1         0      7106         1         0
      7109         1         0      7112         1         0      7115         1         0
      7118         1         0      7121         1         0      7124         1         0
      7128         2         0      7144         2         0      7155         1         0
      7163         1         0      7172         1         0      7175         1         0
      7178         1         0      7180         1         0      7182         1         0
      7185         1         0      7187         1         0      7189         1         0
      7192         1         0      7194         1         0      7196         1         0
      7199         1         0      7201         1         0      7203         1         0
      7206         1         0      7209         2         0      7212         1         0
      7215         2         0      7219         1         0      7222         1         0
      7225         1         0      7228         1         0      7231         1         0
      7234         1         0      7237         1         0      7240         1         0
      7243         1         0      7246         1         0      7249         1         0
      7252         1         0      7255         1         0      7258         1         0
      7261         1         0      7264         1         0      7268         2         0
      7284         2         0      7295         1         0      7299         1         0
      7303         1         0      7305         1         0      7307         1         0
      7310         1         0      7313         1         0      7316         1         0
      7319         1         0      7322         1         0      7325         1         0
      7328         1         0      7331         1         0      7334         1         0
      7337         1         0      7340         1         0      7343         1         0
      7347         1         0      7352         1         0      7355         1         0
      7358         1         0      7361         1         0      7364         1         0
      7367         1         0      7370         1         0      7372         1         0
      7374         1         0      7377         1         0      7380         1         0
      7383         1         0      7386         1         0      7389         1         0
      7392         1         0      7395         1         0      7399         1         0
      7403         1         0      7406         1         0      7409         1         0
      7412         1         0      7414         1         0      7416         1         0
      7419         1         0      7422         1         0      7424         0         0
      7425         1         0      7429         1         0      7432         1         0
      7435         1         0      7437         0         0      7438         1         0
      7442         1         0      7445         1         0      7448         1         0
      7450         1         0      7454         1         0      7457         1         0
      7460         1         0      7463         1         0      7465         1         0
      7469         1         0      7473         1         0      7477         1         0
      7480         1         0      7483         1         0      7486         1         0
      7488         1         0      7490         1         0      7493         1         0
      7496         1         0      7498         0         0      7499         1         0
      7503         1         0      7506         1         0      7509         1         0
      7511         0         0      7512         1         0      7516         1         0
      7519         1         0      7522         1         0      7524         1         0
      7528         1         0      7531         1         0      7534         1         0
      7537         1         0      7539         1         0      7543         1         0
      7547         1         0      7551         1         0      7554         1         0
      7557         1         0      7560         1         0      7562         1         0
      7564         1         0      7567         1         0      7570         1         0
      7572         0         0      7573         1         0      7577         1         0
      7580         1         0      7583         1         0      7585         0         0
      7586         1         0      7590         1         0      7593         1         0
      7596         1         0      7598         1         0      7602         1         0
      7605         1         0      7608         1         0      7611         1         0
      7613         1         0      7617         1         0      7621         2         0
      7628         2         0      7639         1         0      7647         1         0
      7656         1         0      7659         1         0      7662         1         0
      7664         1         0      7666         1         0      7669         1         0
      7671         1         0      7673         1         0      7676         1         0
      7678         1         0      7680         1         0      7683         1         0
      7685         1         0      7687         1         0      7690         1         0
      7693         1         0      7696         1         0      7699         1         0
      7703         1         0      7706         1         0      7709         1         0
      7712         1         0      7715         1         0      7718         1         0
      7721         1         0      7724         1         0      7727         1         0
      7730         1         0      7733         1         0      7736         1         0
      7739         1         0      7742         1         0      7745         1         0
      7748         1         0      7752         2         0      7759         2         0
      7770         1         0      7778         1         0      7787         1         0
      7790         1         0      7793         1         0      7796         1         0
      7799         1         0      7802         1         0      7805         1         0
      7807         1         0      7809         1         0      7812         1         0
      7815         1         0      7818         1         0      7821         1         0
      7824         1         0      7827         1         0      7830         1         0
      7834         1         0      7837         1         0      7840         1         0
      7843         1         0      7846         1         0      7849         1         0
      7852         1         0      7855         1         0      7858         1         0
      7861         1         0      7864         1         0      7867         1         0
      7870         1         0      7873         1         0      7876         1         0
      7879         1         0      7883         2         0      7899         2         0
      7910         1         0      7914         1         0      7918         1         0
      7920         1         0      7922         1         0      7925         1         0
      7928         1         0      7931         1         0      7934         1         0
      7937         1         0      7940         1         0      7943         1         0
      7946         1         0      7949         1         0      7952         1         0
      7955         1         0      7958         1         0      7962         1         0
      7967         1         0      7970         1         0      7973         1         0
      7976         1         0      7979         1         0      7982         1         0
      7985         1         0      7987         1         0      7989         1         0
      7992         1         0      7995         1         0      7998         1         0
      8001         1         0      8004         1         0      8007         1         0
      8010         1         0      8014         2         0      8030         2         0
      8041         1         0      8049         1         0      8058         1         0
      8061         1         0      8064         1         0      8066         1         0
      8068         1         0      8071         1         0      8073         1         0
      8075         1         0      8078         1         0      8080         1         0
      8082         1         0      8085         1         0      8087         1         0
      8089         1         0      8092         1         0      8095         2         0
      8098         1         0      8101         2         0      8105         1         0
      8108         1         0      8111         1         0      8114         1         0
      8117         1         0      8120         1         0      8123         1         0
      8126         1         0      8129         1         0      8132         1         0
      8135         1         0      8138         1         0      8141         1         0
      8144         1         0      8147         1         0      8150         1         0
      8154         1         0      8158         1         0      8161         1         0
      8164         1         0      8167         1         0      8169         1         0
      8171         1         0      8174         1         0      8177         1         0
      8179         0         0      8180         1         0      8184         1         0
      8187         1         0      8190         1         0      8192         0         0
      8193         1         0      8197         1         0      8200         1         0
      8203         1         0      8205         1         0      8209         1         0
      8212         1         0      8215         1         0      8218         1         0
      8220         1         0      8224         1         0      8228         2         0
      8244         2         0      8255         1         0      8259         1         0
      8263         1         0      8265         1         0      8267         1         0
      8270         1         0      8273         1         0      8276         1         0
      8279         1         0      8282         1         0      8285         1         0
      8288         1         0      8291         1         0      8294         1         0
      8297         1         0      8300         1         0      8303         1         0
      8307         1         0      8312         1         0      8315         1         0
      8318         1         0      8321         1         0      8324         1         0
      8327         1         0      8330         1         0      8332         1         0
      8334         1         0      8337         1         0      8340         1         0
      8343         1         0      8346         1         0      8349         1         0
      8352         1         0      8355         1         0      8359         2         0
      8375         2         0      8386         1         0      8394         1         0
      8403         1         0      8406         1         0      8409         1         0
      8412         1         0      8415         1         0      8418         1         0
      8421         1         0      8423         1         0      8425         1         0
      8428         1         0      8430         1         0      8432         1         0
      8435         1         0      8438         1         0      8441         1         0
      8444         1         0      8448         1         0      8451         1         0
      8454         1         0      8457         1         0      8460         1         0
      8463         1         0      8466         1         0      8469         1         0
      8472         1         0      8475         1         0      8478         1         0
      8481         1         0      8484         1         0      8487         1         0
      8490         1         0      8493         1         0      8497         2         0
      8503         2         0      8506         2         0      8517         1         0
      8525         1         0      8534         1         0      8537         1         0
      8540         1         0      8542         1         0      8544         1         0
      8547         1         0      8549         1         0      8551         1         0
      8554         1         0      8556         1         0      8558         1         0
      8561         1         0      8563         1         0      8565         1         0
      8568         1         0      8571         1         0      8574         1         0
      8577         1         0      8581         1         0      8584         1         0
      8587         1         0      8590         1         0      8593         1         0
      8596         1         0      8599         1         0      8602         1         0
      8605         1         0      8608         1         0      8611         1         0
      8614         1         0      8617         1         0      8620         1         0
      8623         1         0      8626         1         0      8630         2         0
      8636         2         0      8639         2         0      8650         1         0
      8658         1         0      8667         1         0      8670         1         0
      8673         1         0      8675         1         0      8677         1         0
      8680         1         0      8682         1         0      8684         1         0
      8687         1         0      8689         1         0      8691         1         0
      8694         1         0      8696         1         0      8698         1         0
      8701         1         0      8704         1         0      8707         1         0
      8710         1         0      8714         1         0      8717         1         0
      8720         1         0      8723         1         0      8726         1         0
      8729         1         0      8732         1         0      8735         1         0
      8738         1         0      8741         1         0      8744         1         0
      8747         1         0      8750         1         0      8753         1         0
      8756         1         0      8759         1         0      8763         2         0
      8779         2         0      8790         1         0      8798         1         0
      8807         1         0      8810         1         0      8813         1         0
      8816         1         0      8819         1         0      8822         1         0
      8825         1         0      8827         1         0      8829         1         0
      8832         1         0      8835         1         0      8838         1         0
      8841         1         0      8844         1         0      8847         1         0
      8850         1         0      8854         1         0      8857         1         0
      8860         1         0      8863         1         0      8866         1         0
      8869         1         0      8872         1         0      8875         1         0
      8878         1         0      8881         1         0      8884         1         0
      8887         1         0      8890         1         0      8893         1         0
      8897         2         0      8913         2         0      8924         1         0
      8928         1         0      8932         1         0      8934         1         0
      8936         1         0      8939         1         0      8942         1         0
      8945         1         0      8948         1         0      8951         1         0
      8954         1         0      8957         1         0      8960         1         0
      8963         1         0      8966         1         0      8969         1         0
      8972         1         0      8976         1         0      8981         1         0
      8984         1         0      8987         1         0      8990         1         0
      8993         1         0      8996         1         0      8999         1         0
      9001         1         0      9003         1         0      9006         1         0
      9009         1         0      9012         1         0      9015         1         0
      9018         1         0      9021         1         0      9024         1         0
      9028         2         0      9035         2         0      9046         1         0
      9054         1         0      9063         1         0      9066         1         0
      9069         1         0      9071         1         0      9073         1         0
      9076         1         0      9078         1         0      9080         1         0
      9083         1         0      9085         1         0      9087         1         0
      9090         1         0      9092         1         0      9094         1         0
      9097         1         0      9100         1         0      9103         1         0
      9106         1         0      9110         1         0      9113         1         0
      9116         1         0      9119         1         0      9122         1         0
      9125         1         0      9128         1         0      9131         1         0
      9134         1         0      9137         1         0      9140         1         0
      9143         1         0      9146         1         0      9149         1         0
      9152         1         0      9155         1         0      9159         1         0
      9163         1         0      9166         1         0      9169         1         0
      9172         1         0      9174         1         0      9176         1         0
      9179         1         0      9182         1         0      9184         0         0
      9185         1         0      9189         1         0      9192         1         0
      9195         1         0      9197         0         0      9198         1         0
      9202         1         0      9205         1         0      9208         1         0
      9210         1         0      9214         1         0      9217         1         0
      9220         1         0      9223         1         0      9225         1         0
      9229         1         0      9233         1         0      9237         1         0
      9240         1         0      9243         1         0      9246         1         0
      9248         1         0      9250         1         0      9253         1         0
      9256         1         0      9258         0         0      9259         1         0
      9263         1         0      9266         1         0      9269         1         0
      9271         0         0      9272         1         0      9276         1         0
      9279         1         0      9282         1         0      9284         1         0
      9288         1         0      9291         1         0      9294         1         0
      9297         1         0      9299         1         0      9303         1         0
      9307         1         0      9311         1         0      9315         1         0
      9319         1         0      9323         1         0      9327         2         0
      9337         1         0      9345         1         0      9354         1         0
      9357         1         0      9360         1         0      9362         1         0
      9364         1         0      9367         1         0      9369         1         0
      9371         1         0      9374         1         0      9376         1         0
      9378         1         0      9381         1         0      9383         1         0
      9385         1         0      9388         1         0      9391         1         0
      9394         1         0      9397         1         0      9401         1         0
      9404         1         0      9407         1         0      9410         1         0
      9413         1         0      9416         1         0      9419         1         0
      9422         1         0      9425         1         0      9428         1         0
      9431         1         0      9434         1         0      9437         1         0
      9440         1         0      9443         1         0      9446         1         0
      9450         1         0      9454         1         0      9457         1         0
      9460         1         0      9463         1         0      9465         1         0
      9467         1         0      9470         1         0      9473         1         0
      9475         0         0      9476         1         0      9480         1         0
      9483         1         0      9486         1         0      9488         0         0
      9489         1         0      9493         1         0      9496         1         0
      9499         1         0      9501         1         0      9505         1         0
      9508         1         0      9511         1         0      9514         1         0
      9516         1         0      9520         1         0      9524         2         0
      9531         2         0      9542         1         0      9550         1         0
      9559         1         0      9562         1         0      9565         1         0
      9568         1         0      9571         1         0      9574         1         0
      9577         1         0      9579         1         0      9581         1         0
      9584         1         0      9587         1         0      9590         1         0
      9593         1         0      9596         1         0      9599         1         0
      9602         1         0      9606         1         0      9609         1         0
      9612         1         0      9615         1         0      9618         1         0
      9621         1         0      9624         1         0      9627         1         0
      9630         1         0      9633         1         0      9636         1         0
      9639         1         0      9642         1         0      9645         1         0
      9648         1         0      9651         1         0      9655         2         0
      9671         2         0      9682         1         0      9686         1         0
      9690         1         0      9692         1         0      9694         1         0
      9697         1         0      9700         1         0      9703         1         0
      9706         1         0      9709         1         0      9712         1         0
      9715         1         0      9718         1         0      9721         1         0
      9724         1         0      9727         1         0      9730         1         0
      9734         1         0      9739         1         0      9742         1         0
      9745         1         0      9748         1         0      9751         1         0
      9754         1         0      9757         1         0      9759         1         0
      9761         1         0      9764         1         0      9767         1         0
      9770         1         0      9773         1         0      9776         1         0
      9779         1         0      9782         1         0      9786         2         0
      9792         2         0      9795         2         0      9806         1         0
      9814         1         0      9823         1         0      9826         1         0
      9829         1         0      9831         1         0      9833         1         0
      9836         1         0      9838         1         0      9840         1         0
      9843         1         0      9845         1         0      9847         1         0
      9850         1         0      9852         1         0      9854         1         0
      9857         1         0      9860         1         0      9863         1         0
      9866         1         0      9870         1         0      9873         1         0
      9876         1         0      9879         1         0      9882         1         0
      9885         1         0      9888         1         0      9891         1         0
      9894         1         0      9897         1         0      9900         1         0
      9903         1         0      9906         1         0      9909         1         0
      9912         1         0      9915         1         0      9919         1         0
      9923         1         0      9926         1         0      9929         1         0
      9932         1         0      9934         1         0      9936         1         0
      9939         1         0      9942         1         0      9944         0         0
      9945         1         0      9949         1         0      9952         1         0
      9955         1         0      9957         0         0      9958         1         0
      9962         1         0      9965         1         0      9968         1         0
      9970         1         0      9974         1         0      9977         1         0
      9980         1         0      9983         1         0      9985         1         0
      9989         1         0      9993         2         0     10000         2         0
     10011         1         0     10019         1         0     10028         1         0
     10031         1         0     10034         1         0     10036         1         0
     10038         1         0     10041         1         0     10043         1         0
     10045         1         0     10048         1         0     10050         1         0
     10052         1         0     10055         1         0     10057         1         0
     10059         1         0     10062         1         0     10065         1         0
     10068         1         0     10071         1         0     10075         1         0
     10078         1         0     10081         1         0     10084         1         0
     10087         1         0     10090         1         0     10093         1         0
     10096         1         0     10099         1         0     10102         1         0
     10105         1         0     10108         1         0     10111         1         0
     10114         1         0     10117         1         0     10120         1         0
     10124         1         0     10128         1         0     10131         1         0
     10134         1         0     10137         1         0     10139         1         0
     10141         1         0     10144         1         0     10147         1         0
     10149         0         0     10150         1         0     10154         1         0
     10157         1         0     10160         1         0     10162         0         0
     10163         1         0     10167         1         0     10170         1         0
     10173         1         0     10175         1         0     10179         1         0
     10182         1         0     10185         1         0     10188         1         0
     10190         1         0     10194         1         0     10198         2         0
     10214         2         0     10225         1         0     10233         1         0
     10242         1         0     10245         1         0     10248         1         0
     10251         1         0     10254         1         0     10257         1         0
     10260         1         0     10262         1         0     10264         1         0
     10267         1         0     10269         1         0     10271         1         0
     10274         1         0     10277         1         0     10280         1         0
     10283         1         0     10287         1         0     10290         1         0
     10293         1         0     10296         1         0     10299         1         0
     10302         1         0     10305         1         0     10308         1         0
     10311         1         0     10314         1         0     10317         1         0
     10320         1         0     10323         1         0     10326         1         0
     10329         1         0     10332         1         0     10336         2         0
     10352         2         0     10363         1         0     10371         1         0
     10380         1         0     10383         1         0     10386         1         0
     10388         1         0     10390         1         0     10393         1         0
     10395         1         0     10397         1         0     10400         1         0
     10402         1         0     10404         1         0     10407         1         0
     10409         1         0     10411         1         0     10414         1         0
     10417         2         0     10420         1         0     10423         2         0
     10427         1         0     10430         1         0     10433         1         0
     10436         1         0     10439         1         0     10442         1         0
     10445         1         0     10448         1         0     10451         1         0
     10454         1         0     10457         1         0     10460         1         0
     10463         1         0     10466         1         0     10469         1         0
     10472         1         0     10476         1         0     10480         1         0
     10483         1         0     10486         1         0     10489         1         0
     10491         1         0     10493         1         0     10496         1         0
     10499         1         0     10501         0         0     10502         1         0
     10506         1         0     10509         1         0     10512         1         0
     10514         0         0     10515         1         0     10519         1         0
     10522         1         0     10525         1         0     10527         1         0
     10531         1         0     10534         1         0     10537         1         0
     10540         1         0     10542         1         0     10546         1         0
     10550         2         0     10557         2         0     10568         1         0
     10576         1         0     10585         1         0     10588         1         0
     10591         1         0     10593         1         0     10595         1         0
     10598         1         0     10600         1         0     10602         1         0
     10605         1         0     10607         1         0     10609         1         0
     10612         1         0     10614         1         0     10616         1         0
     10619         1         0     10622         1         0     10625         1         0
     10628         1         0     10632         1         0     10635         1         0
     10638         1         0     10641         1         0     10644         1         0
     10647         1         0     10650         1         0     10653         1         0
     10656         1         0     10659         1         0     10662         1         0
     10665         1         0     10668         1         0     10671         1         0
     10674         1         0     10677         1         0     10681         1         0
     10685         1         0     10688         1         0     10691         1         0
     10694         1         0     10696         1         0     10698         1         0
     10701         1         0     10704         1         0     10706         0         0
     10707         1         0     10711         1         0     10714         1         0
     10717         1         0     10719         0         0     10720         1         0
     10724         1         0     10727         1         0     10730         1         0
     10732         1         0     10736         1         0     10739         1         0
     10742         1         0     10745         1         0     10747         1         0
     10751         1         0     10755         2         0     10771         2         0
     10782         1         0     10790         1         0     10799         1         0
     10802         1         0     10805         1         0     10808         1         0
     10811         1         0     10814         1         0     10817         1         0
     10819         1         0     10821         1         0     10824         1         0
     10827         1         0     10830         1         0     10833         1         0
     10836         1         0     10839         1         0     10842         1         0
     10846         1         0     10849         1         0     10852         1         0
     10855         1         0     10858         1         0     10861         1         0
     10864         1         0     10867         1         0     10870         1         0
     10873         1         0     10876         1         0     10879         1         0
     10882         1         0     10885         1         0     10889         2         0
     10895         2         0     10898         2         0     10909         1         0
     10917         1         0     10926         1         0     10929         1         0
     10932         1         0     10934         1         0     10936         1         0
     10939         1         0     10941         1         0     10943         1         0
     10946         1         0     10948         1         0     10950         1         0
     10953         1         0     10955         1         0     10957         1         0
     10960         1         0     10963         1         0     10966         1         0
     10969         1         0     10973         1         0     10976         1         0
     10979         1         0     10982         1         0     10985         1         0
     10988         1         0     10991         1         0     10994         1         0
     10997         1         0     11000         1         0     11003         1         0
     11006         1         0     11009         1         0     11012         1         0
     11015         1         0     11018         1         0     11022         2         0
     11038         2         0     11049         1         0     11057         1         0
     11066         1         0     11069         1         0     11072         1         0
     11075         1         0     11078         1         0     11081         1         0
     11084         1         0     11086         1         0     11088         1         0
     11091         1         0     11093         1         0     11095         1         0
     11098         1         0     11101         1         0     11104         1         0
     11107         1         0     11111         1         0     11114         1         0
     11117         1         0     11120         1         0     11123         1         0
     11126         1         0     11129         1         0     11132         1         0
     11135         1         0     11138         1         0     11141         1         0
     11144         1         0     11147         1         0     11150         1         0
     11153         1         0     11156         1         0     11160         1         0
     11163         1         0     11166         1         0     11169         1         0
     11172         1         0     11175         1         0     11178         1         0
     11181         1         0     11184         1         0     11187         1         0
     11190         1         0     11193         1         0     11196         1         0
     11199         1         0     11202         1         0     11205         1         0
     11208         1         0     11211         1         0     11214         1         0
     11217         1         0     11220         1         0     11223         1         0
     11226         1         0     11229         1         0     11232         1         0
     11235         1         0     11238         1         0     11241         1         0
     11244         1         0     11247         1         0     11250         1         0
     11253         1         0     11256         1         0     11259         1         0
     11262         1         0     11265         1         0     11268         1         0
     11271         1         0     11274         1         0     11277         1         0
     11280         1         0     11283         1         0     11286         1         0
     11289         1         0     11292         1         0     11295         1         0

         0         0 !NUMLP NUMLPH

         0 !NCRTERM: cross-terms


        46 !AUTOGEN
         0         0         0         0         0         0         0         0
         0         0         0         0         0         0         0         0
         0         0         0         0         0         0         0         0
         0         0         0         0         0         0         0         0
         0         0         0         0         0         0         0         0
         0         0         0         0         0         0         0         0
         0         0         0         0         0         0         0         0
         0         0         0         0         0         0         0         0
         0         0         0         0         0         0         0         0
         0         0         0         0         0         0         0         0
         0         0         0         0         0         0         0         0
         0         0         0         0         0         0         0         0
         0         0         0         0         0         0         0         0
         0         0         0         0         0         0         0         0
         0         0         0         0         0         0         0         0
         0         0         0         0         0         0         0         0
         0         0         0         0         0         0         0         0
         0         0         0         0         0         0         0         0
         0         0         0         0         0         0         0         0
         0         0         0         0         0         0         0         0
         0         0         0         0         0         0         0         0
         0         0         0         0         0         0         0         0
         0         0         0         0         0         0         0         0
         0         0         0         0         0         0         0         0
         0         0         0         0         0         0         0         0
         0         0         0         0         0         0         0         0
         0         0         0         0         0         0         0         0
         0         0         0         0         0         0         0         0
         0         0         0         0         0         0         0         0
         0         0         0         0         0         0         0         0
         0         0         0         0         0         0         0         0
         0         0         0         0         0         0         0         0
         0         0         0         0         0         0         0         0
         0         0         0         0         0         0         0         0
         0         0         0         0         0         0         0         0
         0         0         0         0         0         0         0         0
         0         0         0         0         0         0         0         0
         0         0         0         0         0         0         0         0
         0         0         0         0         0         0         0         0
         0         0         0         0         0         0         0         0
         0         0         0         0         0         0         0         0
         0         0         0         0         0         0         0         0
         0         0         0         0         0         0         0         0
         0         0         0         0         0         0         0         0
         0         0         0         0         0         0         0         0
         0         0         0         0         0         0         0         0
         0         0         0         0         0         0         0         0
         0         0         0         0         0         0         0         0
         0         0         0         0         0         0         0         0
         0         0         0         0         0         0         0         0
         0         0         0         0         0         0         0         0
         0         0         0         0         0         0         0         0
         0         0         0         0         0         0         0         0
         0         0         0         0         0         0         0         0
         0         0         0         0         0         0         0         0
         0         0         0         0         0         0         0         0
         0         0         0         0         0         0         0         0
         0         0         0         0         0         0         0         0
         0         0         0         0         0         0         0         0
         0         0         0         0         0         0         0         0
         0         0         0         0         0         0         0         0
         0         0         0         0         0         0         0         0
         0         0         0         0         0         0         0         0
         0         0         0         0         0         0         0         0
         0         0         0         0         0         0         0         0
         0         0         0         0         0         0         0         0
         0         0         0         0         0         0         0         0
         0         0         0         0         0         0         0         0
         0         0         0         0         0         0         0         0
         0         0         0         0         0         0         0         0
         0         0         0         0         0         0         0         0
         0         0         0         0         0         0         0         0
         0         0         0         0         0         0         0         0
         0         0         0         0         0         0         0         0
         0         0         0         0         0         0         0         0
         0         0         0         0         0         0         0         0
         0         0         0         0         0         0         0         0
         0         0         0         0         0         0         0         0
         0         0         0         0         0         0         0         0
         0         0         0         0         0         0         0         0
         0         0         0         0         0         0         0         0
         0         0         0         0         0         0         0         0
         0         0         0         0         0         0         0         0
         0         0         0         0         0         0         0         0
         0         0         0         0         0         0         0         0
         0         0         0         0         0         0         0         0
         0         0         0         0         0         0         0         0
         0         0         0         0         0         0         0         0
         0         0         0         0         0         0         0         0
         0         0         0         0         0         0         0         0
         0         0         0         0         0         0         0         0
         0         0         0         0         0         0         0         0
         0         0         0         0         0         0         0         0
         0         0         0         0         0         0         0         0
         0         0         0         0         0         0         0         0
         0         0         0         0         0         0         0         0
         0         0         0         0         0         0         0         0
         0         0         0         0         0         0         0         0
         0         0         0         0         0         0         0         0
         0         0         0         0         0         0         0         0
         0         0         0         0         0         0         0         0
         0         0         0         0         0         0         0         0
         0         0         0         0         0         0         0         0
         0         0         0         0         0         0         0         0
         0         0         0         0         0         0         0         0
         0         0         0         0         0         0         0         0
         0         0         0         0         0         0         0         0
         0         0         0         0         0         0         0         0
         0         0         0         0         0         0         0         0
         0         0         0         0         0         0         0         0
         0         0         0         0         0         0         0         0
         0         0         0         0         0         0         0         0
         0         0         0         0         0         0         0         0
         0         0         0         0         0         0         0         0
         0         0         0         0         0         0         0         0
         0         0         0         0         0         0         0         0
         0         0         0         0         0         0         0         0
         0         0         0         0         0         0         0         0
         0         0         0         0         0         0         0         0
         0         0         0         0         0         0         0         0
         0         0         0         0         0         0         0         0
         0         0         0         0         0         0         0         0
         0         0         0         0         0         0         0         0
         0         0         0         0         0         0         0         0
         0         0         0         0         0         0         0         0
         0         0         0         0         0         0         0         0
         0         0         0         0         0         0         0         0
         0         0         0         0         0         0         0         0
         0         0         0         0         0         0         0         0
         0         0         0         0         0         0         0         0
         0         0         0         0         0         0         0         0
         0         0         0         0         0         0         0         0
         0         0         0         0         0         0         0         0
         0         0         0         0         0         0         0         0
         0         0         0         0         0         0         0         0
         0         0         0         0         0         0         0         0
         0         0         0         0         0         0         0         0
         0         0         0         0         0         0         0         0
         0         0         0         0         0         0         0         0
         0         0         0         0         0         0         0         0
         0         0         0         0         0         0         0         0
         0         0         0         0         0         0         0         0
         0         0         0         0         0         0         0         0
         0         0         0         0         0         0         0         0
         0         0         0         0         0         0         0         0
         0         0         0         0         0         0         0         0
         0         0         0         0         0         0         0         0
         0         0         0         0         0         0         0         0
         0         0         0         0         0         0         0         0
         0         0         0         0         0         0         0         0
         0         0         0         0         0         0         0         0
         0         0         0         0         0         0         0         0
         0         0         0         0         0         0         0         0
         0         0         0         0         0         0         0         0
         0         0         0         0         0         0         0         0
         0         0         0         0         0         0         0         0
         0         0         0         0         0         0         0         0
         0         0         0         0         0         0         0         0
         0         0         0         0         0         0         0         0
         0         0         0         0         0         0         0         0
         0         0         0         0         0         0         0         0
         0         0         0         0         0         0         0         0
         0         0         0         0         0         0         0         0
         0         0         0         0         0         0         0         0
         0         0         0         0         0         0         0         0
         0         0         0         0         0         0         0         0
         0         0         0         0         0         0         0         0
         0         0         0         0         0         0         0         0
         0         0         0         0         0         0         0         0
         0         0         0         0         0         0         0         0
         0         0         0         0         0         0         0         0
         0         0         0         0         0         0         0         0
         0         0         0         0         0         0         0         0
         0         0         0         0         0         0         0         0
         0         0         0         0         0         0         0         0
         0         0         0         0         0         0         0         0
         0         0         0         0         0         0         0         0
         0         0         0         0         0         0         0         0
         0         0         0         0         0         0         0         0
         0         0         0         0         0         0         0         0
         0         0         0         0         0         0         0         0
         0         0         0         0         0         0         0         0
         0         0         0         0         0         0         0         0
         0         0         0         0         0         0         0         0
         0         0         0         0         0         0         0         0
         0         0         0         0         0         0         0         0
         0         0         0         0         0         0         0         0
         0         0         0         0         0         0         0         0
         0         0         0         0         0         0         0         0
         0         0         0         0         0         0         0         0
         0         0         0         0         0         0         0         0
         0         0         0         0         0         0         0         0
         0         0         0         0         0         0         0         0
         0         0         0         0         0         0         0         0
         0         0         0         0         0         0         0         0
         0         0         0         0         0         0         0         0
         0         0         0         0         0         0         0         0
         0         0         0         0         0         0         0         0
         0         0         0         0         0         0         0         0
         0         0         0         0         0         0         0         0
         0         0         0         0         0         0         0         0
         0         0         0         0         0         0         0         0
         0         0         0         0         0         0         0         0
         0         0         0         0         0         0         0         0
         0         0         0         0         0         0         0         0
         0         0         0         0         0         0         0         0
         0         0         0         0         0         0         0         0
         0         0         0         0         0         0         0         0
         0         0         0         0         0         0         0         0
         0         0         0         0         0         0         0         0
         0         0         0         0         0         0         0         0
         0         0         0         0         0         0         0         0
         0         0         0         0         0         0         0         0
         0         0         0         0         0         0         0         0
         0         0         0         0         0         0         0         0
         0         0         0         0         0         0         0         0
         0         0         0         0         0         0         0         0
         0         0         0         0         0         0         0         0
         0         0         0         0         0         0         0         0
         0         0         0         0         0         0         0         0
         0         0         0         0         0         0         0         0
         0         0         0         0         0         0         0         0
         0         0         0         0         0         0         0         0
         0         0         0         0         0         0         0         0
         0         0         0         0         0         0         0         0
         0         0         0         0         0         0         0         0
         0         0         0         0         0         0         0         0
         0         0         0         0         0         0         0         0
         0         0         0         0         0         0         0         0
         0         0         0         0         0         0         0         0
         0         0         0         0         0         0         0         0
         0         0         0         0         0         0         0         0
         0         0         0         0         0         0         0         0
         0         0         0         0         0         0         0         0
         0         0         0         0         0         0         0         0
         0         0         0         0         0         0         0         0
         0         0         0         0         0         0         0         0
         0         0         0         0         0         0         0         0
         0         0         0         0         0         0         0         0
         0         0         0         0         0         0         0         0
         0         0         0         0         0         0         0         0
         0         0         0         0         0         0         0         0
         0         0         0         0         0         0         0         0
         0         0         0         0         0         0         0         0
         0         0         0         0         0         0         0         0
         0         0         0         0         0         0         0         0
         0         0         0         0         0         0         0         0
         0         0         0         0         0         0         0         0
         0         0         0         0         0         0         0         0
         0         0         0         0         0         0         0         0
         0         0         0         0         0         0         0         0
         0         0         0         0         0         0         0         0
         0         0         0         0         0         0         0         0
         0         0         0         0         0         0         0         0
         0         0         0         0         0         0         0         0
         0         0         0         0         0         0         0         0
         0         0         0         0         0         0         0         0
         0         0         0         0         0         0         0         0
         0         0         0         0         0         0         0         0
         0         0         0         0         0         0         0         0
         0         0         0         0         0         0         0         0
         0         0         0         0         0         0         0         0
         0         0         0         0         0         0         0         0
         0         0         0         0         0         0         0         0
         0         0         0         0         0         0         0         0
         0         0         0         0         0         0         0         0
         0         0         0         0         0         0         0         0
         0         0         0         0         0         0         0         0
         0         0         0         0         0         0         0         0
         0         0         0         0         0         0         0         0
         0         0         0         0         0         0         0         0
         0         0         0         0         0         0         0         0
         0         0         0         0         0         0         0         0
         0         0         0         0         0         0         0         0
         0         0         0         0         0         0         0         0
         0         0         0         0         0         0         0         0
         0         0         0         0         0         0         0         0
         0         0         0         0         0         0         0         0
         0         0         0         0         0         0         0         0
         0         0         0         0         0         0         0         0
         0         0         0         0         0         0         0         0
         0         0         0         0         0         0         0         0
         0         0         0         0         0         0         0         0
         0         0         0         0         0         0         0         0
         0         0         0         0         0         0         0         0
         0         0         0         0         0         0         0         0
         0         0         0         0         0         0         0         0
         0         0         0         0         0         0         0         0
         0         0         0         0         0         0         0         0
         0         0         0         0         0         0         0         0
         0         0         0         0         0         0         0         0
         0         0         0         0         0         0         0         0
         0         0         0         0         0         0         0         0
         0         0         0         0         0         0         0         0
         0         0         0         0         0         0         0         0
         0         0         0         0         0         0         0         0
         0         0         0         0         0         0         0         0
         0         0         0         0         0         0         0         0
         0         0         0         0         0         0         0         0
         0         0         0         0         0         0         0         0
         0         0         0         0         0         0         0         0
         0         0         0         0         0         0         0         0
         0         0         0         0         0         0         0         0
         0         0         0         0         0         0         0         0
         0         0         0         0         0         0         0         0
         0         0         0         0         0         0         0         0
         0         0         0         0         0         0         0         0
         0         0         0         0         0         0         0         0
         0         0         0         0         0         0         0         0
         0         0         0         0         0         0         0         0
         0         0         0         0         0         0         0         0
         0         0         0         0         0         0         0         0
         0         0         0         0         0         0         0         0
         0         0         0         0         0         0         0         0
         0         0         0         0         0         0         0         0
         0         0         0         0         0         0         0         0
         0         0         0         0         0         0         0         0
         0         0         0         0         0         0         0         0
         0         0         0         0         0         0         0         0
         0         0         0         0         0         0         0         0
         0         0         0         0         0         0         0         0
         0         0         0         0         0         0         0         0
         0         0         0         0         0         0         0         0
         0         0         0         0         0         0         0         0
         0         0         0         0         0         0         0         0
         0         0         0         0         0         0         0         0
         0         0         0         0         0         0         0         0
         0         0         0         0         0         0         0         0
         0         0         0         0         0         0         0         0
         0         0         0         0         0         0         0         0
         0         0         0         0         0         0         0         0
         0         0         0         0         0         0         0         0
         0         0         0         0         0         0         0         0
         0         0         0         0         0         0         0         0
         0         0         0         0         0         0         0         0
         0         0         0         0         0         0         0         0
         0         0         0         0         0         0         0         0
         0         0         0         0         0         0         0         0
         0         0         0         0         0         0         0         0
         0         0         0         0         0         0         0         0
         0         0         0         0         0         0         0         0
         0         0         0         0         0         0         0         0
         0         0         0         0         0         0         0         0
         0         0         0         0         0         0         0         0
         0         0         0         0         0         0         0         0
         0         0         0         0         0         0         0         0
         0         0         0         0         0         0         0         0
         0         0         0         0         0         0         0         0
         0         0         0         0         0         0         0         0
         0         0         0         0         0         0         0         0
         0         0         0         0         0         0         0         0
         0         0         0         0         0         0         0         0
         0         0         0         0         0         0         0         0
         0         0         0         0         0         0         0         0
         0         0         0         0         0         0         0         0
         0         0         0         0         0         0         0         0
         0         0         0         0         0         0         0         0
         0         0         0         0         0         0         0         0
         0         0         0         0         0         0         0         0
         0         0         0         0         0         0         0         0
         0         0         0         0         0         0         0         0
         0         0         0         0         0         0         0         0
         0         0         0         0         0         0         0         0
         0         0         0         0         0         0         0         0
         0         0         0         0         0         0         0         0
         0         0         0         0         0         0         0         0
         0         0         0         0         0         0         0         0
         0         0         0         0         0         0         0         0
         0         0         0         0         0         0         0         0
         0         0         0         0         0         0         0         0
         0         0         0         0         0         0         0         0
         0         0         0         0         0         0         0         0
         0         0         0         0         0         0         0         0
         0         0         0         0         0         0         0         0
         0         0         0         0         0         0         0         0
         0         0         0         0         0         0         0         0
         0         0         0         0         0         0         0         0
         0         0         0         0         0         0         0         0
         0         0         0         0         0         0         0         0
         0         0         0         0         0         0         0         0
         0         0         0         0         0         0         0         0
         0         0         0         0         0         0         0         0
         0         0         0         0         0         0         0         0
         0         0         0         0         0         0         0         0
         0         0         0         0         0         0         0         0
         0         0         0         0         0         0         0         0
         0         0         0         0         0         0         0         0
         0         0         0         0         0         0         0         0
         0         0         0         0         0         0         0         0
         0         0         0         0         0         0         0         0
         0         0         0         0         0         0         0         0
         0         0         0         0         0         0         0         0
         0         0         0         0         0         0         0         0
         0         0         0         0         0         0         0         0
         0         0         0         0         0         0         0         0
         0         0         0         0         0         0         0         0
         0         0         0         0         0         0         0         0
         0         0         0         0         0         0         0         0
         0         0         0         0         0         0         0         0
         0         0         0         0         0         0         0         0
         0         0         0         0         0         0         0         0
         0         0         0         0         0         0         0         0
         0         0         0         0         0         0         0         0
         0         0         0         0         0         0         0         0
         0         0         0         0         0         0         0         0
         0         0         0         0         0         0         0         0
         0         0         0         0         0         0         0         0
         0         0         0         0         0         0         0         0
         0         0         0         0         0         0         0         0
         0         0         0         0         0         0         0         0
         0         0         0         0         0         0         0         0
         0         0         0         0         0         0         0         0
         0         0         0         0         0         0         0         0
         0         0         0         0         0         0         0         0
         0         0         0         0         0         0         0         0
         0         0         0         0         0         0         0         0
         0         0         0         0         0         0         0         0
         0         0         0         0         0         0         0         0
         0         0         0         0         0         0         0         0
         0         0         0         0         0         0         0         0
         0         0         0         0         0         0         0         0
         0         0         0         0         0         0         0         0
         0         0         0         0         0         0         0         0
         0         0         0         0         0         0         0         0
         0         0         0         0         0         0         0         0
         0         0         0         0         0         0         0         0
         0         0         0         0         0         0         0         0
         0         0         0         0         0         0         0         0
         0         0         0         0         0         0         0         0
         0         0         0         0         0         0         0         0
         0         0         0         0         0         0         0         0
         0         0         0         0         0         0         0         0
         0         0         0         0         0         0         0         0
         0         0         0         0         0         0         0         0
         0         0         0         0         0         0         0         0
         0         0         0         0         0         0         0         0
         0         0         0         0         0         0         0         0
         0         0         0         0         0         0         0         0
         0         0         0         0         0         0         0         0
         0         0         0         0         0         0         0         0
         0         0         0         0         0         0         0         0
         0         0         0         0         0         0         0         0
         0         0         0         0         0         0         0         0
         0         0         0         0         0         0         0         0
         0         0         0         0         0         0         0         0
         0         0         0         0         0         0         0         0
         0         0         0         0         0         0         0         0
         0         0         0         0         0         0         0         0
         0         0         0         0         0         0         0         0
         0         0         0         0         0         0         0         0
         0         0         0         0         0         0         0         0
         0         0         0         0         0         0         0         0
         0         0         0         0         0         0         0         0
         0         0         0         0         0         0         0         0
         0         0         0         0         0         0         0         0
         0         0         0         0         0         0         0         0
         0         0         0         0         0         0         0         0
         0         0         0         0         0         0         0         0
         0         0         0         0         0         0         0         0
         0         0         0         0         0         0         0         0
         0         0         0         0         0         0         0         0
         0         0         0         0         0         0         0         0
         0         0         0         0         0         0         0         0
         0         0         0         0         0         0         0         0
         0         0         0         0         0         0         0         0
         0         0         0         0         0         0         0         0
         0         0         0         0         0         0         0         0
         0         0         0         0         0         0         0         0
         0         0         0         0         0         0         0         0
         0         0         0         0         0         0         0         0
         0         0         0         0         0         0         0         0
         0         0         0         0         0         0         0         0
         0         0         0         0         0         0         0         0
         0         0         0         0         0         0         0         0
         0         0         0         0         0         0         0         0
         0         0         0         0         0         0         0         0
         0         0         0         0         0         0         0         0
         0         0         0         0         0         0         0         0
         0         0         0         0         0         0         0         0
         0         0         0         0         0         0         0         0
         0         0         0         0         0         0         0         0
         0         0         0         0         0         0         0         0
         0         0         0         0         0         0         0         0
         0         0         0         0         0         0         0         0
         0         0         0         0         0         0         0         0
         0         0         0         0         0         0         0         0
         0         0         0         0         0         0         0         0
         0         0         0         0         0         0         0         0
         0         0         0         0         0         0         0         0
         0         0         0         0         0         0         0         0
         0         0         0         0         0         0         0         0
         0         0         0         0         0         0         0         0
         0         0         0         0         0         0         0         0
         0         0         0         0         0         0         0         0
         0         0         0         0         0         0         0         0
         0         0         0         0         0         0         0         0
         0         0         0         0         0         0         0         0
         0         0         0         0         0         0         0         0
         0         0         0         0         0         0         0         0
         0         0         0         0         0         0         0         0
         0         0         0         0         0         0         0         0
         0         0         0         0         0         0         0         0
         0         0         0         0         0         0         0         0
         0         0         0         0         0         0         0         0
         0         0         0         0         0         0         0         0
         0         0         0         0         0         0         0         0
         0         0         0         0         0         0         0         0
         0         0         0         0         0         0         0         0
         0         0         0         0         0         0         0         0
         0         0         0         0         0         0         0         0
         0         0         0         0         0         0         0         0
         0         0         0         0         0         0         0         0
         0         0         0         0         0         0         0         0
         0         0         0         0         0         0         0         0
         0         0         0         0         0         0         0         0
         0         0         0         0         0         0         0         0
         0         0         0         0         0         0         0         0
         0         0         0         0         0         0         0         0
         0         0         0         0         0         0         0         0
         0         0         0         0         0         0         0         0
         0         0         0         0         0         0         0         0
         0         0         0         0         0         0         0         0
         0         0         0         0         0         0         0         0
         0         0         0         0         0         0         0         0
         0         0         0         0         0         0         0         0
         0         0         0         0         0         0         0         0
         0         0         0         0         0         0         0         0
         0         0         0         0         0         0         0         0
         0         0         0         0         0         0         0         0
         0         0         0         0         0         0         0         0
         0         0         0         0         0         0         0         0
         0         0         0         0         0         0         0         0
         0         0         0         0         0         0         0         0
         0         0         0         0         0         0         0         0
         0         0         0         0         0         0         0         0
         0         0         0         0         0         0         0         0
         0         0         0         0         0         0         0         0
         0         0         0         0         0         0         0         0
         0         0         0         0         0         0         0         0
         0         0         0         0         0         0         0         0
         0         0         0         0         0         0         0         0
         0         0         0         0         0         0         0         0
         0         0         0         0         0         0         0         0
         0         0         0         0         0         0         0         0
         0         0         0         0         0         0         0         0
         0         0         0         0         0         0         0         0
         0         0         0         0         0         0         0         0
         0         0         0         0         0         0         0         0
         0         0         0         0         0         0         0         0
         0         0         0         0         0         0         0         0
         0         0         0         0         0         0         0         0
         0         0         0         0         0         0         0         0
         0         0         0         0         0         0         0         0
         0         0         0         0         0         0         0         0
         0         0         0         0         0         0         0         0
         0         0         0         0         0         0         0         0
         0         0         0         0         0         0         0         0
         0         0         0         0         0         0         0         0
         0         0         0         0         0         0         0         0
         0         0         0         0         0         0         0         0
         0         0         0         0         0         0         0         0
         0         0         0         0         0         0         0         0
         0         0         0         0         0         0         0         0
         0         0         0         0         0         0         0         0
         0         0         0         0         0         0         0         0
         0         0         0         0         0         0         0         0
         0         0         0         0         0         0         0         0
         0         0         0         0         0         0         0         0
         0         0         0         0         0         0         0         0
         0         0         0         0         0         0         0         0
         0         0         0         0         0         0         0         0
         0         0         0         0         0         0         0         0
         0         0         0         0         0         0         0         0
         0         0         0         0         0         0         0         0
         0         0         0         0         0         0         0         0
         0         0         0         0         0         0         0         0
         0         0         0         0         0         0         0         0
         0         0         0         0         0         0         0         0
         0         0         0         0         0         0         0         0
         0         0         0         0         0         0         0         0
         0         0         0         0         0         0         0         0
         0         0         0         0         0         0         0         0
         0         0         0         0         0         0         0         0
         0         0         0         0         0         0         0         0
         0         0         0         0         0         0         0         0
         0         0         0         0         0         0         0         0
         0         0         0         0         0         0         0         0
         0         0         0         0         0         0         0         0
         0         0         0         0         0         0         0         0
         0         0         0         0         0         0         0         0
         0         0         0         0         0         0         0         0
         0         0         0         0         0         0         0         0
         0         0         0         0         0         0         0         0
         0         0         0         0         0         0         0         0
         0         0         0         0         0         0         0         0
         0         0         0         0         0         0         0         0
         0         0         0         0         0         0         0         0
         0         0         0         0         0         0         0         0
         0         0         0         0         0         0         0         0
         0         0         0         0         0         0         0         0
         0         0         0         0         0         0         0         0
         0         0         0         0         0         0         0         0
         0         0         0         0         0         0         0         0
         0         0         0         0         0         0         0         0
         0         0         0         0         0         0         0         0
         0         0         0         0         0         0         0         0
         0         0         0         0         0         0         0         0
         0         0         0         0         0         0         0         0
         0         0         0         0         0         0         0         0
         0         0         0         0         0         0         0         0
         0         0         0         0         0         0         0         0
         0         0         0         0         0         0         0         0
         0         0         0         0         0         0         0         0
         0         0         0         0         0         0         0         0
         0         0         0         0         0         0         0         0
         0         0         0         0         0         0         0         0
         0         0         0         0         0         0         0         0
         0         0         0         0         0         0         0         0
         0         0         0         0         0         0         0         0
         0         0         0         0         0         0         0         0
         0         0         0         0         0         0         0         0
         0         0         0         0         0         0         0         0
         0         0         0         0         0         0         0         0
         0         0         0         0         0         0         0         0
         0         0         0         0         0         0         0         0
         0         0         0         0         0         0         0         0
         0         0         0         0         0         0         0         0
         0         0         0         0         0         0         0         0
         0         0         0         0         0         0         0         0
         0         0         0         0         0         0         0         0
         0         0         0         0         0         0         0         0
         0         0         0         0         0         0         0         0
         0         0         0         0         0         0         0         0
         0         0         0         0         0         0         0         0
         0         0         0         0         0         0         0         0
         0         0         0         0         0         0         0         0
         0         0         0         0         0         0         0         0
         0         0         0         0         0         0         0         0
         0         0         0         0         0         0         0         0
         0         0         0         0         0         0         0         0
         0         0         0         0         0         0         0         0
         0         0         0         0         0         0         0         0
         0         0         0         0         0         0         0         0
         0         0         0         0         0         0         0         0
         0         0         0         0         0         0         0         0
         0         0         0         0         0         0         0         0
         0         0         0         0         0         0         0         0
         0         0         0         0         0         0         0         0
         0         0         0         0         0         0         0         0
         0         0         0         0         0         0         0         0
         0         0         0         0         0         0         0         0
         0         0         0         0         0         0         0         0
         0         0         0         0         0         0         0         0
         0         0         0         0         0         0         0         0
         0         0         0         0         0         0         0         0
         0         0         0         0         0         0         0         0
         0         0         0         0         0         0         0         0
         0         0         0         0         0         0         0         0
         0         0         0         0         0         0         0         0
         0         0         0         0         0         0         0         0
         0         0         0         0         0         0         0         0
         0         0         0         0         0         0         0         0
         0         0         0         0         0         0         0         0
         0         0         0         0         0         0         0         0
         0         0         0         0         0         0         0         0
         0         0         0         0         0         0         0         0
         0         0         0         0         0         0         0         0
         0         0         0         0         0         0         0         0
         0         0         0         0         0         0         0         0
         0         0         0         0         0         0         0         0
         0         0         0         0         0         0         0         0
         0         0         0         0         0         0         0         0
         0         0         0         0         0         0         0         0
         0         0         0         0         0         0         0         0
         0         0         0         0         0         0         0         0
         0         0         0         0         0         0         0         0
         0         0         0         0         0         0         0         0
         0         0         0         0         0         0         0         0
         0         0         0         0         0         0         0         0
         0         0         0         0         0         0         0         0
         0         0         0         0         0         0         0         0
         0         0         0         0         0         0         0         0
         0         0         0         0         0         0         0         0
         0         0         0         0         0         0         0         0
         0         0         0         0         0         0         0         0
         0         0         0         0         0         0         0         0
         0         0         0         0         0         0         0         0
         0         0         0         0         0         0         0         0
         0         0         0         0         0         0         0         0
         0         0         0         0         0         0         0         0
         0         0         0         0         0         0         0         0
         0         0         0         0         0         0         0         0
         0         0         0         0         0         0         0         0
         0         0         0         0         0         0         0         0
         0         0         0         0         0         0         0         0
         0         0         0         0         0         0         0         0
         0         0         0         0         0         0         0         0
         0         0         0         0         0         0         0         0
         0         0         0         0         0         0         0         0
         0         0         0         0         0         0         0         0
         0         0         0         0         0         0         0         0
         0         0         0         0         0         0         0         0
         0         0         0         0         0         0         0         0
         0         0         0         0         0         0         0         0
         0         0         0         0         0         0         0         0
         0         0         0         0         0         0         0         0
         0         0         0         0         0         0         0         0
         0         0         0         0         0         0         0         0
         0         0         0         0         0         0         0         0
         0         0         0         0         0         0         0         0
         0         0         0         0         0         0         0         0
         0         0         0         0         0         0         0         0
         0         0         0         0         0         0         0         0
         0         0         0         0         0         0         0         0
         0         0         0         0         0         0         0         0
         0         0         0         0         0         0         0         0
         0         0         0         0         0         0         0         0
         0         0         0         0         0         0         0         0
         0         0         0         0         0         0         0         0
         0         0         0         0         0         0         0         0
         0         0         0         0         0         0         0         0
         0         0         0         0         0         0         0         0
         0         0         0         0         0         0         0         0
         0         0         0         0         0         0         0         0
         0         0         0         0         0         0         0         0
         0         0         0         0         0         0         0         0
         0         0         0         0         0         0         0         0
         0         0         0         0         0         0         0         0
         0         0         0         0         0         0         0         0
         0         0         0         0         0         0         0         0
         0         0         0         0         0         0         0         0
         0         0         0         0         0         0         0         0
         0         0         0         0         0         0         0         0
         0         0         0         0         0         0         0         0
         0         0         0         0         0         0         0         0
         0         0         0         0         0         0         0         0
         0         0         0         0         0         0         0         0
         0         0         0         0         0         0         0         0
         0         0         0         0         0         0         0         0
         0         0         0         0         0         0         0         0
         0         0         0         0         0         0         0         0
         0         0         0         0         0         0         0         0
         0         0         0         0         0         0         0         0
         0         0         0         0         0         0         0         0
         0         0         0         0         0         0         0         0
         0         0         0         0         0         0         0         0
         0         0         0         0         0         0         0         0
         0         0         0         0         0         0         0         0
         0         0         0         0         0         0         0         0
         0         0         0         0         0         0         0         0
         0         0         0         0         0         0         0         0
         0         0         0         0         0         0         0         0
         0         0         0         0         0         0         0         0
         0         0         0         0         0         0         0         0
         0         0         0         0         0         0         0         0
         0         0         0         0         0         0         0         0
         0         0         0         0         0         0         0         0
         0         0         0         0         0         0         0         0
         0         0         0         0         0         0         0         0
         0         0         0         0         0         0         0         0
         0         0         0         0         0         0         0         0
         0         0         0         0         0         0         0         0
         0         0         0         0         0         0         0         0
         0         0         0         0         0         0         0         0
         0         0         0         0         0         0         0         0
         0         0         0         0         0         0         0         0
         0         0         0         0         0         0         0         0
         0         0         0         0         0         0         0         0
         0         0         0         0         0         0         0         0
         0         0         0         0         0         0         0         0
         0         0         0         0         0         0         0         0
         0         0         0         0         0         0         0         0
         0         0         0         0         0         0         0         0
         0         0         0         0         0         0         0         0
         0         0         0         0         0         0         0         0
         0         0         0         0         0         0         0         0
         0         0         0         0         0         0         0         0
         0         0         0         0         0         0         0         0
         0         0         0         0         0         0         0         0
         0         0         0         0         0         0         0         0
         0         0         0         0         0         0         0         0
         0         0         0         0         0         0         0         0
         0         0         0         0         0         0         0         0
         0         0         0         0         0         0         0         0
         0         0         0         0         0         0         0         0
         0         0         0         0         0         0         0         0
         0         0         0         0         0         0         0         0
         0         0         0         0         0         0         0         0
         0         0         0         0         0         0         0         0
         0         0         0         0         0         0         0         0
         0         0         0         0         0         0         0         0
         0         0         0         0         0         0         0         0
         0         0         0         0         0         0         0         0
         0         0         0         0         0         0         0         0
         0         0         0         0         0         0         0         0
         0         0         0         0         0         0         0         0
         0         0         0         0         0         0         0         0
         0         0         0         0         0         0         0         0
         0         0         0         0         0         0         0         0
         0         0         0         0         0         0         0         0
         0         0         0         0         0         0         0         0
         0         0         0         0         0         0         0         0
         0         0         0         0         0         0         0         0
         0         0         0         0         0         0         0         0
         0         0         0         0         0         0         0         0
         0         0         0         0         0         0         0         0
         0         0         0         0         0         0         0         0
         0         0         0         0         0         0         0         0
         0         0         0         0         0         0         0         0
         0         0         0         0         0         0         0         0
         0         0         0         0         0         0         0         0
         0         0         0         0         0         0         0         0
         0         0         0         0         0         0         0         0
         0         0         0         0         0         0         0         0
         0         0         0         0         0         0         0         0
         0         0         0         0         0         0         0         0
         0         0         0         0         0         0         0         0
         0         0         0         0         0         0         0         0
         0         0         0         0         0         0         0         0
         0         0         0         0         0         0         0         0
         0         0         0         0         0         0         0         0
         0         0         0         0         0         0         0         0
         0         0         0         0         0         0         0         0
         0         0         0         0         0         0         0         0
         0         0         0         0         0         0         0         0
         0         0         0         0         0         0         0         0
         0         0         0         0         0         0         0         0
         0         0         0         0         0         0         0         0
         0         0         0         0         0         0         0         0
         0         0         0         0         0         0         0         0
         0         0         0         0         0         0         0         0
         0         0         0         0         0         0         0         0
         0         0         0         0         0         0         0         0
         0         0         0         0         0         0         0         0
         0         0         0         0         0         0         0         0
         0         0         0         0         0         0         0         0
         0         0         0         0         0         0         0         0
         0         0         0         0         0         0         0         0
         0         0         0         0         0         0         0         0
         0         0         0         0         0         0         0         0
         0         0         0         0         0         0         0         0
         0         0         0         0         0         0         0         0
         0         0         0         0         0         0         0         0
         0         0         0         0         0         0         0         0
         0         0         0         0         0         0         0         0
         0         0         0         0         0         0         0         0
         0         0         0         0         0         0         0         0
         0         0         0         0         0         0         0         0
         0         0         0         0         0         0         0         0
         0         0         0         0         0         0         0         0
         0         0         0         0         0         0         0         0
         0         0         0         0         0         0         0         0
         0         0         0         0         0         0         0         0
         0         0         0         0         0         0         0         0
         0         0         0         0         0         0         0         0
         0         0         0         0         0         0         0         0
         0         0         0         0         0         0         0         0
         0         0         0         0         0         0         0         0
         0         0         0         0         0         0         0         0
         0         0         0         0         0         0         0         0
         0         0         0         0         0         0         0         0
         0         0         0         0         0         0         0         0
         0         0         0         0         0         0         0         0
         0         0         0         0         0         0         0         0
         0         0         0         0         0         0         0         0
         0         0         0         0         0         0         0         0
         0         0         0         0         0         0         0         0
         0         0         0         0         0         0         0         0
         0         0         0         0         0         0         0         0
         0         0         0         0         0         0         0         0
         0         0         0         0         0         0         0         0
         0         0         0         0         0         0         0         0
         0         0         0         0         0         0         0         0
         0         0         0         0         0         0         0         0
         0         0         0         0         0         0         0         0
         0         0         0         0         0         0         0         0
         0         0         0         0         0         0         0         0
         0         0         0         0         0         0         0         0
         0         0         0         0         0         0         0         0
         0         0         0         0         0         0         0         0
         0         0         0         0         0         0         0         0
         0         0         0         0         0         0         0         0
         0         0         0         0         0         0         0         0
         0         0         0         0         0         0         0         0
         0         0         0         0         0         0         0         0
         0         0         0         0         0         0         0         0
         0         0         0         0         0         0         0         0
         0         0         0         0         0         0         0         0
         0         0         0         0         0         0         0         0
         0         0         0         0         0         0         0         0
         0         0         0         0         0         0         0         0
         0         0         0         0         0         0         0         0
         0         0         0         0         0         0         0         0
         0         0         0         0         0         0         0         0
         0         0         0         0         0         0         0         0
         0         0         0         0         0         0         0         0
         0         0         0         0         0         0         0         0
         0         0         0         0         0         0         0         0
         0         0         0         0         0         0         0         0
         0         0         0         0         0         0         0         0
         0         0         0         0         0         0         0         0
         0         0         0         0         0         0         0         0
         0         0         0         0         0         0         0         0
         0         0         0         0         0         0         0         0
         0         0         0         0         0         0         0         0
         0         0         0         0         0         0         0         0
         0         0         0         0         0         0         0         0
         0         0         0         0         0         0         0         0
         0         0         0         0         0         0         0         0
         0         0         0         0         0         0         0         0
         0         0         0         0         0         0         0         0
         0         0         0         0         0         0         0         0
         0         0         0         0         0         0         0         0
         0         0         0         0         0         0         0         0
         0         0         0         0         0         0         0         0
         0         0         0         0         0         0         0         0
         0         0         0         0         0         0         0         0
         0         0         0         0         0         0         0         0
         0         0         0         0         0         0         0         0
         0         0         0         0         0         0         0         0
         0         0         0         0         0         0         0         0
         0         0         0         0         0         0         0         0
         0         0         0         0         0         0         0         0
         0         0         0         0         0         0         0         0
         0         0         0         0         0         0         0         0
         0         0         0         0         0         0         0         0
         0         0         0         0         0         0         0         0
         0         0         0         0         0         0         0         0
         0         0         0         0         0         0         0         0
         0         0         0         0         0         0         0         0
         0         0         0         0         0         0         0         0
         0         0         0         0         0         0         0         0
         0         0         0         0         0         0         0         0
         0         0         0         0         0         0         0         0
         0         0         0         0         0         0         0         0
         0         0         0         0         0         0         0         0
         0         0         0         0         0         0         0         0
         0         0         0         0         0         0         0         0
         0         0         0         0         0         0         0         0
         0         0         0         0         0         0         0         0
         0         0         0         0         0         0         0         0
         0         0         0         0         0         0         0         0
         0         0         0         0         0         0         0         0
         0         0         0         0         0         0         0         0
         0         0         0         0         0         0         0         0
         0         0         0         0         0         0         0         0
         0         0         0         0         0         0         0         0
         0         0         0         0         0         0         0         0
         0         0         0         0         0         0         0         0
         0         0         0         0         0         0         0         0
         0         0         0         0         0         0         0         0
         0         0         0         0         0         0         0         0
         0         0         0         0         0         0         0         0
         0         0         0         0         0         0         0         0
         0         0         0         0         0         0         0         0
         0         0         0         0         0         0         0         0
         0         0         0         0         0         0         0         0
         0         0         0         0         0         0         0         0
         0         0         0         0         0         0         0         0
         0         0         0         0         0         0         0         0
         0         0         0         0         0         0         0         0
         0         0         0         0         0         0         0         0
         0         0         0         0         0         0         0         0
         0         0         0         0         0         0         0         0
         0         0         0         0         0         0         0         0
         0         0         0         0         0         0         0         0
         0         0         0         0         0         0         0         0
         0         0         0         0         0         0         0         0
         0         0         0         0         0         0         0         0
         0         0         0         0         0         0         0         0
         0         0         0         0         0         0         0         0
         0         0         0         0         0         0         0         0
         0         0         0         0         0         0         0         0
         0         0         0         0         0         0         0         0
         0         0         0         0         0         0         0         0
         0         0         0         0         0         0         0         0
         0         0         0         0         0         0         0         0
         0         0         0         0         0         0         0         0
         0         0         0         0         0         0         0         0
         0         0         0         0         0         0         0         0
         0         0         0         0         0         0         0         0
         0         0         0         0         0         0         0         0
         0         0         0         0         0         0         0         0
         0         0         0         0         0         0         0         0
         0         0         0         0         0         0         0         0
         0         0         0         0         0         0         0         0
         0         0         0         0         0         0         0         0
         0         0         0         0         0         0         0         0
         0         0         0         0         0         0         0         0
         0         0         0         0         0         0         0         0
         0         0         0         0         0         0         0         0
         0         0         0         0         0         0         0         0
         0         0         0         0         0         0         0         0
         0         0         0         0         0         0         0         0
         0         0         0         0         0         0         0         0
         0         0         0         0         0         0         0         0
         0         0         0         0         0         0         0         0
         0         0         0         0         0         0         0         0
         0         0         0         0         0         0         0         0
         0         0         0         0         0         0         0         0
         0         0         0         0         0         0         0         0
         0         0         0         0         0         0         0         0
         0         0         0         0         0         0         0         0
         0         0         0         0         0         0         0         0
         0         0         0         0         0         0         0         0
         0         0         0         0         0         0         0         0
         0         0         0         0         0         0         0         0
         0         0         0         0         0         0         0         0
         0         0         0         0         0         0         0         0
         0         0         0         0         0         0         0         0
         0         0         0         0         0         0         0         0
         0         0         0         0         0         0         0         0
         0         0         0         0         0         0         0         0
         0         0         0         0         0         0         0         0
         0         0         0         0         0         0         0         0
         0         0         0         0         0         0         0         0
         0         0         0         0         0         0         0         0
         0         0         0         0         0         0         0         0
         0         0         0         0         0         0         0         0
         0         0         0         0         0         0         0         0
         0         0         0         0         0         0         0         0
         0         0         0         0         0         0         0         0
         0         0         0         0         0         0         0         0
         0         0         0         0         0         0         0         0
         0         0         0         0         0         0         0         0
         0         0         0         0         0         0         0         0
         0         0         0         0         0         0         0         0
         0         0         0         0         0         0         0         0
         0         0         0         0         0         0         0         0
         0         0         0         0         0         0         0         0
         0         0         0         0         0         0         0         0
         0         0         0         0         0         0         0         0
         0         0         0         0         0         0         0         0
         0         0         0         0         0         0         0         0
         0         0         0         0         0         0         0         0
         0         0         0         0         0         0         0         0
         0         0         0         0         0         0         0         0
         0         0         0         0         0         0         0         0
         0         0         0         0         0         0         0         0
         0         0         0         0         0         0         0         0
         0         0         0         0         0         0         0         0
         0         0         0         0         0         0         0         0
         0         0         0         0         0         0         0         0
         0         0         0         0         0         0         0         0
         0         0         0         0         0         0         0         0
         0         0         0         0         0         0         0         0
         0         0         0         0         0         0         0         0
         0         0         0         0         0         0         0         0
         0         0         0         0         0         0         0         0
         0         0         0         0         0         0         0         0
         0         0         0         0         0         0         0         0
         0         0         0         0         0         0         0         0
         0         0         0         0         0         0         0         0
         0         0         0         0         0         0         0         0
         0         0         0         0         0         0         0         0
         0         0         0         0         0         0         0         0
         0         0         0         0         0         0         0         0
         0         0         0         0         0         0         0         0
         0         0         0         0         0         0         0         0
         0         0         0         0         0         0         0         0
         0         0         0         0         0         0         0         0
         0         0         0         0         0         0         0         0
         0         0         0         0         0         0         0         0
         0         0         0         0         0         0         0         0
         0         0         0         0         0         0         0         0
         0         0         0         0         0         0         0         0
         0         0         0         0         0         0         0         0
         0         0         0         0         0         0         0         0
         0         0         0         0         0         0         0         0
         0         0         0         0         0         0         0         0
         0         0         0         0         0         0         0         0
         0         0         0         0         0         0         0         0
         0         0         0         0         0         0         0         0
         0         0         0         0         0         0         0         0
         0         0         0         0         0         0         0         0
         0         0         0         0         0         0         0         0
         0         0         0         0         0         0         0         0
         0         0         0         0         0         0         0         0
         0         0         0         0         0         0         0         0
         0         0         0         0         0         0         0         0
         0         0         0         0         0         0         0         0
         0         0         0         0         0         0         0         0
         0         0         0         0         0         0         0         0
         0         0         0         0         0         0         0         0
         0         0         0         0         0         0         0         0
         0         0         0         0         0         0         0         0
         0         0         0         0         0         0         0         0
         0         0         0         0         0         0         0         0
         0         0         0         0         0         0         0         0
         0         0         0         0         0         0         0         0
         0         0         0         0         0         0         0         0
         0         0         0         0         0         0         0         0
         0         0         0         0         0         0         0         0
         0         0         0         0         0         0         0         0
         0         0         0         0         0         0         0         0
         0         0         0         0         0         0         0         0
         0         0         0         0         0         0         0         0
         0         0         0         0         0         0         0         0
         0         0         0         0         0         0         0         0
         0         0         0         0         0         0         0         0
         0         0         0         0         0         0         0         0
         0         0         0         0         0         0         0         0
         0         0         0         0         0         0         0         0
         0         0         0         0         0         0         0         0
         0         0         0         0         0         0         0         0
         0         0         0         0         0         0         0         0
         0         0         0         0         0         0         0         0
         0         0         0         0         0         0         0         0
         0         0         0         0         0         0         0         0
         0         0         0         0         0         0         0         0
         0         0         0         0         0         0         0         0
         0         0         0         0         0         0         0         0
         0         0         0         0         0         0         0         0
         0         0         0         0         0         0         0         0
         0         0         0         0         0         0         0         0
         0         0         0         0         0         0         0         0
         0         0         0         0         0         0         0         0
         0         0         0         0         0         0         0         0
         0         0         0         0         0         0         0         0
         0         0         0         0         0         0         0         0
         0         0         0         0         0         0         0         0
         0         0         0         0         0         0         0         0
         0         0         0         0         0         0         0         0
         0         0         0         0         0         0         0         0
         0         0         0         0         0         0         0         0
         0         0         0         0         0         0         0         0
         0         0         0         0         0         0         0         0
         0         0         0         0         0         0         0         0
         0         0         0         0         0         0         0         0
         0         0         0         0         0         0         0         0
         0         0         0         0         0         0         0         0
         0         0         0         0         0         0         0         0
         0         0         0         0         0         0         0         0
         0         0         0         0         0         0         0         0
         0         0         0         0         0         0         0         0
         0         0         0         0         0         0         0         0
         0         0         0         0         0         0         0         0
         0         0         0         0         0         0         0         0
         0         0         0         0         0         0         0         0
         0         0         0         0         0         0         0         0
         0         0         0         0         0         0         0         0
         0         0         0         0         0         0         0         0
         0         0         0         0         0         0         0         0
         0         0         0         0         0         0         0         0
         0         0         0         0         0         0         0         0
         0         0         0         0         0         0         0         0
         0         0         0         0         0         0         0         0
         0         0         0         0         0         0         0         0
         0         0         0         0         0         0         0         0
         0         0         0         0         0         0         0         0
         0         0         0         0         0         0         0         0
         0         0         0         0         0         0         0         0
         0         0         0         0         0         0         0         0
         0         0         0         0         0         0         0         0
         0         0         0         0         0         0         0         0
         0         0         0         0         0         0         0         0
         0         0         0         0         0         0         0         0
         0         0         0         0         0         0         0         0
         0         0         0         0         0         0         0         0
         0         0         0         0         0         0         0         0
         0         0         0         0         0         0         0         0
         0         0         0         0         0         0         0         0
         0         0         0         0         0         0         0         0
         0         0         0         0         0         0         0         0
         0         0         0         0         0         0         0         0
         0         0         0         0         0         0         0         0
         0         0         0         0         0         0         0         0
         0         0         0         0         0         0         0         0
         0         0         0         0         0         0         0         0
         0         0         0         0         0         0         0         0
         0         0         0         0         0         0         0         0
         0         0         0         0         0         0         0         0
         0         0         0         0         0         0         0         0
         0         0         0         0         0         0         0         0
         0         0         0         0         0         0         0         0
         0         0         0         0         0         0         0         0
         0         0         0         0         0         0         0         0
         0         0         0         0         0         0         0         0
         0         0         0         0         0         0         0         0
         0         0         0         0         0         0         0         0
         0         0         0         0         0         0         0         0
         0         0         0         0         0         0         0         0
         0         0         0         0         0         0         0         0
         0         0         0         0         0         0         0         0
         0         0         0         0         0         0         0         0
         0         0         0         0         0         0         0         0
         0         0         0         0         0         0         0         0
         0         0         0         0         0         0         0         0
         0         0         0         0         0         0         0         0
         0         0         0         0         0         0         0         0
         0         0         0         0         0         0         0         0
         0         0         0         0         0         0         0         0
         0         0         0         0         0         0         0         0
         0         0         0         0         0         0         0         0
         0         0         0         0         0         0         0         0
         0         0         0         0         0         0         0         0
         0         0         0         0         0         0         0         0
         0         0         0         0         0         0         0         0
         0         0         0         0         0         0         0         0
         0         0         0         0         0         0         0         0
         0         0         0         0         0         0         0         0
         0         0         0         0         0         0         0         0
         0         0         0         0         0         0         0         0
         0         0         0         0         0         0         0         0
         0         0         0         0         0         0         0         0
         0         0         0         0         0         0         0         0
         0         0         0         0         0         0         0         0
         0         0         0         0         0         0         0         0
         0         0         0         0         0         0         0         0
         0         0         0         0         0         0         0         0
         0         0         0         0         0         0         0         0
         0         0         0         0         0         0         0         0
         0         0         0         0         0         0         0         0
         0         0         0         0         0         0         0         0
         0         0         0         0         0         0         0         0
         0         0         0         0         0         0         0         0
         0         0         0         0         0         0         0         0
         0         0         0         0         0         0         0         0
         0         0         0         0         0         0         0         0
         0         0         0         0         0         0         0         0
         0         0         0         0         0         0         0         0
         0         0         0         0         0         0         0         0
         0         0         0         0         0         0         0         0
         0         0         0         0         0         0         0         0
         0         0         0         0         0         0         0         0
         0         0         0         0         0         0         0         0
         0         0         0         0         0         0         0         0
         0         0         0         0         0         0         0         0
         0         0         0         0         0         0         0         0
         0         0         0         0         0         0         0         0
         0         0         0         0         0         0         0         0
         0         0         0         0         0         0         0         0
         0         0         0         0         0         0         0         0
         0         0         0         0         0         0         0         0
         0         0         0         0         0         0         0         0
         0         0         0         0         0         0         0         0
         0         0         0         0         0         0         0         0
         0         0         0         0         0         0         0         0
         0         0         0         0         0         0         0         0
         0         0         0         0         0         0         0         0
         0         0         0         0         0         0         0         0
         0         0         0         0         0         0         0         0
         0         0         0         0         0         0         0         0
         0         0         0         0         0         0         0         0
         0         0         0         0         0         0         0         0
         0         0         0         0         0         0         0         0
         0         0         0         0         0         0         0         0
         0         0         0         0         0         0         0         0
         0         0         0         0         0         0         0         0
         0         0         0         0         0         0         0         0
         0         0         0         0         0         0         0         0
         0         0         0         0         0         0         0         0
         0         0         0         0         0         0         0         0
         0         0         0         0         0         0         0         0
         0         0         0         0         0         0         0         0
         0         0         0         0         0         0         0         0
         0         0         0         0         0         0         0         0
         0         0         0         0         0         0         0         0
         0         0         0         0         0         0         0         0
         0         0         0         0         0         0         0         0
         0         0         0         0         0         0         0         0
         0         0         0         0         0         0         0         0
         0         0         0         0         0         0         0         0
         0         0         0         0         0         0         0         0
         0         0         0         0         0         0         0         0
         0         0         0         0         0         0         0         0
         0         0         0         0         0         0         0         0
         0         0         0         0         0         0         0         0
         0         0         0         0         0         0         0         0
         0         0         0         0         0         0         0         0
         0         0         0         0         0         0         0         0
         0         0         0         0         0         0         0         0
         0         0         0         0         0         0         0         0
         0         0         0         0         0         0         0         0
         0         0         0         0         0         0         0         0
         0         0         0         0         0         0         0         0
         0         0         0         0         0         0         0         0
         0         0         0         0         0         0         0         0
         0         0         0         0         0         0         0         0
         0         0         0         0         0         0         0         0
         0         0         0         0         0         0         0         0
         0         0         0         0         0         0         0         0
         0         0         0         0         0         0         0         0
         0         0         0         0         0         0         0         0
         0         0         0         0         0         0         0         0
         0         0         0         0         0         0         0         0
         0         0         0         0         0         0         0         0
         0         0         0         0         0         0         0         0
         0         0         0         0         0         0         0         0
         0         0         0         0         0         0         0         0
         0         0         0         0         0         0         0         0
         0         0         0         0         0         0         0         0
         0         0         0         0         0         0         0         0
         0         0         0         0         0         0         0         0
         0         0         0         0         0         0         0         0
         0         0         0         0         0         0         0         0
         0         0         0         0         0         0         0         0
         0         0         0         0         0         0         0         0
         0         0         0         0         0         0         0         0
         0         0         0         0         0         0         0         0
         0         0         0         0         0         0         0         0
         0         0         0         0         0         0         0         0
         0         0         0         0         0         0         0         0
         0         0         0         0         0         0         0         0
         0         0         0         0         0         0         0         0
         0         0         0         0         0         0         0         0
         0         0         0         0         0         0         0         0
         0         0         0         0         0         0         0         0
         0         0         0         0         0         0         0         0
         0         0         0         0         0         0         0         0
         0         0         0         0         0         0         0         0
         0         0         0         0         0         0         0         0
         0         0         0         0         0         0         0         0
         0         0         0         0         0         0         0         0
         0         0         0         0         0         0         0         0
         0         0         0         0         0         0         0         0
         0         0         0         0         0         0         0         0
         0         0         0         0         0         0         0         0
         0         0         0         0         0         0         0         0
         0         0         0         0         0         0         0         0
         0         0         0         0         0         0         0         0
         0         0         0         0         0         0         0         0
         0         0         0         0         0         0         0         0
         0         0         0         0         0         0         0         0
         0         0         0         0         0         0         0         0
         0         0         0         0         0         0         0         0
         0         0         0         0         0         0         0         0
         0         0         0         0         0         0         0         0
         0         0         0         0         0         0         0         0
         0         0         0         0         0         0         0         0
         0         0         0         0         0         0         0         0
         0         0         0         0         0         0         0         0
         0         0         0         0         0         0         0         0
         0         0         0         0         0         0         0         0
         0         0         0         0         0         0         0         0
         0         0         0         0         0         0         0         0
         0         0         0         0         0         0         0         0
         0         0         0         0         0         0         0         0
         0         0         0         0         0         0         0         0
         0         0         0         0         0         0         0         0
         0         0         0         0         0         0         0         0
         0         0         0         0         0         0         0         0
         0         0         0         0         0         0         0         0
         0         0         0         0         0         0         0         0
         0         0         0         0         0         0         0         0
         0         0         0         0         0         0         0         0
         0         0         0         0         0         0         0         0
         0         0         0         0         0         0         0         0
         0         0         0         0         0         0         0         0
         0         0         0         0         0         0         0         0
         0         0         0         0         0         0         0         0
         0         0         0         0         0         0         0         0
         0         0         0         0         0         0         0         0
         0         0         0         0         0         0         0         0
         0         0         0         0         0         0         0         0
         0         0         0         0         0         0         0         0
         0         0         0         0         0         0         0         0
         0         0         0         0         0         0         0         0
         0         0         0         0         0         0         0         0
         0         0         0         0         0         0         0         0
         0         0         0         0         0         0         0         0
         0         0         0         0         0         0         0         0
         0         0         0         0         0         0         0         0
         0         0         0         0         0         0         0         0
         0         0         0         0         0         0         0         0
         0         0         0         0         0         0         0         0
         0         0         0         0         0         0         0         0
         0         0         0         0         0         0         0         0
         0         0         0         0         0         0         0         0
         0         0         0         0         0         0         0         0
         0         0         0         0         0         0         0         0
         0         0         0         0         0         0         0         0
         0         0         0         0         0         0         0         0
         0         0         0         0         0         0         0         0
         0         0         0         0         0         0         0         0
         0         0         0         0         0         0         0         0
         0         0         0         0         0         0         0         0
         0         0         0         0         0         0         0         0
         0         0         0         0         0         0         0         0
         0         0         0         0         0         0         0         0
         0         0         0         0         0         0         0         0
         0         0         0         0         0         0         0         0
         0         0         0         0         0         0         0         0
         0         0         0         0         0         0         0         0
         0         0         0         0         0         0         0         0
         0         0         0         0         0         0         0         0
         0         0         0         0         0         0         0         0
         0         0         0         0         0         0         0         0
         0         0         0         0         0         0         0         0
         0         0         0         0         0         0         0         0
         0         0         0         0         0         0         0         0
         0         0         0         0         0         0         0         0
         0         0         0         0         0         0         0         0
         0         0         0         0         0         0         0         0
         0         0         0         0         0         0         0         0
         0         0         0         0         0         0         0         0
         0         0         0         0         0         0         0         0
         0         0         0         0         0         0         0         0
         0         0         0         0         0         0         0         0
         0         0         0         0         0         0         0         0
         0         0         0         0         0         0         0         0
         0         0         0         0         0         0         0         0
         0         0         0         0         0         0         0         0
         0         0         0         0         0         0         0         0
         0         0         0         0         0         0         0         0
         0         0         0         0         0         0         0         0
         0         0         0         0         0         0         0         0
         0         0         0         0         0         0         0         0
         0         0         0         0         0         0         0         0
         0         0         0         0         0         0         0         0
         0         0         0         0         0         0         0         0
         0         0         0         0         0         0         0         0
         0         0
         0         0         0         0         0         0         0         0
         0         0         0         0         0         0         0         0
         0         0         0         0         0         0         0         0
         0         0         0         0         0         0         0         0
         0         0         0         0         0         0         0         0
         0         0         0         0         0         0         0         0
         0         0         0         0         0         0         0         0
         0         0         0         0         0         0         0         0
         0         0         0         0         0         0         0         0
         0         0         0         0         0         0         0         0
         0         0         0         0         0         0         0         0
         0         0         0         0         0         0         0         0
         0         0         0         0         0         0         0         0
         0         0         0         0         0         0         0         0
         0         0         0         0         0         0         0         0
         0         0         0         0         0         0         0         0
         0         0         0         0         0         0         0         0
         0         0         0         0         0         0         0         0
         0         0         0         0         0         0         0         0
         0         0         0         0         0         0         0         0
         0         0         0         0         0         0         0         0
         0         0         0         0         0         0         0         0
         0         0         0         0         0         0         0         0
         0         0         0         0         0         0         0         0
         0         0         0         0         0         0         0         0
         0         0         0         0         0         0         0         0
         0         0         0         0         0         0         0         0
         0         0         0         0         0         0         0         0
         0         0         0         0         0         0         0         0
         0         0         0         0         0         0         0         0
         0         0         0         0         0         0         0         0
         0         0         0         0         0         0         0         0
         0         0         0         0         0         0         0         0
         0         0         0         0         0         0         0         0
         0         0         0         0         0         0         0         0
         0         0         0         0         0         0         0         0
         0         0         0         0         0         0         0         0
         0         0         0         0         0         0         0         0
         0         0         0         0         0         0         0         0
         0         0         0         0         0         0         0         0
         0         0         0         0         0         0         0         0
         0         0         0         0         0         0         0         0
         0         0         0         0         0         0         0         0
         0         0         0         0         0         0         0         0
         0         0         0         0         0         0         0         0
         0         0         0         0         0         0         0         0
         0         0         0         0         0         0         0         0
         0         0         0         0         0         0         0         0
         0         0         0         0         0         0         0         0
         0         0         0         0         0         0         0         0
         0         0         0         0         0         0         0         0
         0         0         0         0         0         0         0         0
         0         0         0         0         0         0         0         0
         0         0         0         0         0         0         0         0
         0         0         0         0         0         0         0         0
         0         0         0         0         0         0         0         0
         0         0         0         0         0         0         0         0
         0         0         0         0         0         0         0         0
         0         0         0         0         0         0         0         0
         0         0         0         0         0         0         0         0
         0         0         0         0         0         0         0         0
         0         0         0         0         0         0         0         0
         0         0         0         0         0         0         0         0
         0         0         0         0         0         0         0         0
         0         0         0         0         0         0         0         0
         0         0         0         0         0         0         0         0
         0         0         0         0         0         0         0         0
         0         0         0         0         0         0         0         0
         0         0         0         0         0         0         0         0
         0         0         0         0         0         0         0         0
         0         0         0         0         0         0         0         0
         0         0         0         0         0         0         0         0
         0         0         0         0         0         0         0         0
         0         0         0         0         0         0         0         0
         0         0         0         0         0         0         0         0
         0         0         0         0         0         0         0         0
         0         0         0         0         0         0         0         0
         0         0         0         0         0         0         0         0
         0         0         0         0         0         0         0         0
         0         0         0         0         0         0         0         0
         0         0         0         0         0         0         0         0
         0         0         0         0         0         0         0         0
         0         0         0         0         0         0         0         0
         0         0         0         0         0         0         0         0
         0         0         0         0         0         0         0         0
         0         0         0         0         0         0         0         0
         0         0         0         0         0         0         0         0
         0         0         0         0         0         0         0         0
         0         0         0         0         0         0         0         0
         0         0         0         0         0         0         0         0
         0         0         0         0         0         0         0         0
         0         0         0         0         0         0         0         0
         0         0         0         0         0         0         0         0
         0         0         0         0         0         0         0         0
         0         0         0         0         0         0         0         0
         0         0         0         0         0         0         0         0
         0         0         0         0         0         0         0         0
         0         0         0         0         0         0         0         0
         0         0         0         0         0         0         0         0
         0         0         0         0         0         0         0         0
         0         0         0         0         0         0         0         0
         0         0         0         0         0         0         0         0
         0         0         0         0         0         0         0         0
         0         0         0         0         0         0         0         0
         0         0         0         0         0         0         0         0
         0         0         0         0         0         0         0         0
         0         0         0         0         0         0         0         0
         0         0         0         0         0         0         0         0
         0         0         0         0         0         0         0         0
         0         0         0         0         0         0         0         0
         0         0         0         0         0         0         0         0
         0         0         0         0         0         0         0         0
         0         0         0         0         0         0         0         0
         0         0         0         0         0         0         0         0
         0         0         0         0         0         0         0         0
         0         0         0         0         0         0         0         0
         0         0         0         0         0         0         0         0
         0         0         0         0         0         0         0         0
         0         0         0         0         0         0         0         0
         0         0         0         0         0         0         0         0
         0         0         0         0         0         0         0         0
         0         0         0         0         0         0         0         0
         0         0         0         0         0         0         0         0
         0         0         0         0         0         0         0         0
         0         0         0         0         0         0         0         0
         0         0         0         0         0         0         0         0
         0         0         0         0         0         0         0         0
         0         0         0         0         0         0         0         0
         0         0         0         0         0         0         0         0
         0         0         0         0         0         0         0         0
         0         0         0         0         0         0         0         0
         0         0         0         0         0         0         0         0
         0         0         0         0         0         0         0         0
         0         0         0         0         0         0         0         0
         0         0         0         0         0         0         0         0
         0         0         0         0         0         0         0         0
         0         0         0         0         0         0         0         0
         0         0         0         0         0         0         0         0
         0         0         0         0         0         0         0         0
         0         0         0         0         0         0         0         0
         0         0         0         0         0         0         0         0
         0         0         0         0         0         0         0         0
         0         0         0         0         0         0         0         0
         0         0         0         0         0         0         0         0
         0         0         0         0         0         0         0         0
         0         0         0         0         0         0         0         0
         0         0         0         0         0         0         0         0
         0         0         0         0         0         0         0         0
         0         0         0         0         0         0         0         0
         0         0         0         0         0         0         0         0
         0         0         0         0         0         0         0         0
         0         0         0         0         0         0         0         0
         0         0         0         0         0         0         0         0
         0         0         0         0         0         0         0         0
         0         0         0         0         0         0         0         0
         0         0         0         0         0         0         0         0
         0         0         0         0         0         0         0         0
         0         0         0         0         0         0         0         0
         0         0         0         0         0         0         0         0
         0         0         0         0         0         0         0         0
         0         0         0         0         0         0         0         0
         0         0         0         0         0         0         0         0
         0         0         0         0         0         0         0         0
         0         0         0         0         0         0         0         0
         0         0         0         0         0         0         0         0
         0         0         0         0         0         0         0         0
         0         0         0         0         0         0         0         0
         0         0         0         0         0         0         0         0
         0         0         0         0         0         0         0         0
         0         0         0         0         0         0         0         0
         0         0         0         0         0         0         0         0
         0         0         0         0         0         0         0         0
         0         0         0         0         0         0         0         0
         0         0         0         0         0         0         0         0
         0         0         0         0         0         0         0         0
         0         0         0         0         0         0         0         0
         0         0         0         0         0         0         0         0
         0         0         0         0         0         0         0         0
         0         0         0         0         0         0         0         0
         0         0         0         0         0         0         0         0
         0         0         0         0         0         0         0         0
         0         0         0         0         0         0         0         0
         0         0         0         0         0         0         0         0
         0         0         0         0         0         0         0         0
         0         0         0         0         0         0         0         0
         0         0         0         0         0         0         0         0
         0         0         0         0         0         0         0         0
         0         0         0         0         0         0         0         0
         0         0         0         0         0         0         0         0
         0         0         0         0         0         0         0         0
         0         0         0         0         0         0         0         0
         0         0         0         0         0         0         0         0
         0         0         0         0         0         0         0         0
         0         0         0         0         0         0         0         0
         0         0         0         0         0         0         0         0
         0         0         0         0         0         0         0         0
         0         0         0         0         0         0         0         0
         0         0         0         0         0         0         0         0
         0         0         0         0         0         0         0         0
         0         0         0         0         0         0         0         0
         0         0         0         0         0         0         0         0
         0         0         0         0         0         0         0         0
         0         0         0         0         0         0         0         0
         0         0         0         0         0         0         0         0
         0         0         0         0         0         0         0         0
         0         0         0         0         0         0         0         0
         0         0         0         0         0         0         0         0
         0         0         0         0         0         0         0         0
         0         0         0         0         0         0         0         0
         0         0         0         0         0         0         0         0
         0         0         0         0         0         0         0         0
         0         0         0         0         0         0         0         0
         0         0         0         0         0         0         0         0
         0         0         0         0         0         0         0         0
         0         0         0         0         0         0         0         0
         0         0         0         0         0         0         0         0
         0         0         0         0         0         0         0         0
         0         0         0         0         0         0         0         0
         0         0         0         0         0         0         0         0
         0         0         0         0         0         0         0         0
         0         0         0         0         0         0         0         0
         0         0         0         0         0         0         0         0
         0         0         0         0         0         0         0         0
         0         0         0         0         0         0         0         0
         0         0         0         0         0         0         0         0
         0         0         0         0         0         0         0         0
         0         0         0         0         0         0         0         0
         0         0         0         0         0         0         0         0
         0         0         0         0         0         0         0         0
         0         0         0         0         0         0         0         0
         0         0         0         0         0         0         0         0
         0         0         0         0         0         0         0         0
         0         0         0         0         0         0         0         0
         0         0         0         0         0         0         0         0
         0         0         0         0         0         0         0         0
         0         0         0         0         0         0         0         0
         0         0         0         0         0         0         0         0
         0         0         0         0         0         0         0         0
         0         0         0         0         0         0         0         0
         0         0         0         0         0         0         0         0
         0         0         0         0         0         0         0         0
         0         0         0         0         0         0         0         0
         0         0         0         0         0         0         0         0
         0         0         0         0         0         0         0         0
         0         0         0         0         0         0         0         0
         0         0         0         0         0         0         0         0
         0         0         0         0         0         0         0         0
         0         0         0         0         0         0         0         0
         0         0         0         0         0         0         0         0
         0         0         0         0         0         0         0         0
         0         0         0         0         0         0         0         0
         0         0         0         0         0         0         0         0
         0         0         0         0         0         0         0         0
         0         0         0         0         0         0         0         0
         0         0         0         0         0         0         0         0
         0         0         0         0         0         0         0         0
         0         0         0         0         0         0         0         0
         0         0         0         0         0         0         0         0
         0         0         0         0         0         0         0         0
         0         0         0         0         0         0         0         0
         0         0         0         0         0         0         0         0
         0         0         0         0         0         0         0         0
         0         0         0         0         0         0         0         0
         0         0         0         0         0         0         0         0
         0         0         0         0         0         0         0         0
         0         0         0         0         0         0         0         0
         0         0         0         0         0         0         0         0
         0         0         0         0         0         0         0         0
         0         0         0         0         0         0         0         0
         0         0         0         0         0         0         0         0
         0         0         0         0         0         0         0         0
         0         0         0         0         0         0         0         0
         0         0         0         0         0         0         0         0
         0         0         0         0         0         0         0         0
         0         0         0         0         0         0         0         0
         0         0         0         0         0         0         0         0
         0         0         0         0         0         0         0         0
         0         0         0         0         0         0         0         0
         0         0         0         0         0         0         0         0
         0         0         0         0         0         0         0         0
         0         0         0         0         0         0         0         0
         0         0         0         0         0         0         0         0
         0         0         0         0         0         0         0         0
         0         0         0         0         0         0         0         0
         0         0         0         0         0         0         0         0
         0         0         0         0         0         0         0         0
         0         0         0         0         0         0         0         0
         0         0         0         0         0         0         0         0
         0         0         0         0         0         0         0         0
         0         0         0         0         0         0         0         0
         0         0         0         0         0         0         0         0
         0         0         0         0         0         0         0         0
         0         0         0         0         0         0         0         0
         0         0         0         0         0         0         0         0
         0         0         0         0         0         0         0         0
         0         0         0         0         0         0         0         0
         0         0         0         0         0         0         0         0
         0         0         0         0         0         0         0         0
         0         0         0         0         0         0         0         0
         0         0         0         0         0         0         0         0
         0         0         0         0         0         0         0         0
         0         0         0         0         0         0         0         0
         0         0         0         0         0         0         0         0
         0         0         0         0         0         0         0         0
         0         0         0         0         0         0         0         0
         0         0         0         0         0         0         0         0
         0         0         0         0         0         0         0         0
         0         0         0         0         0         0         0         0
         0         0         0         0         0         0         0         0
         0         0         0         0         0         0         0         0
         0         0         0         0         0         0         0         0
         0         0         0         0         0         0         0         0
         0         0         0         0         0         0         0         0
         0         0         0         0         0         0         0         0
         0         0         0         0         0         0         0         0
         0         0         0         0         0         0         0         0
         0         0         0         0         0         0         0         0
         0         0         0         0         0         0         0         0
         0         0         0         0         0         0         0         0
         0         0         0         0         0         0         0         0
         0         0         0         0         0         0         0         0
         0         0         0         0         0         0         0         0
         0         0         0         0         0         0         0         0
         0         0         0         0         0         0         0         0
         0         0         0         0         0         0         0         0
         0         0         0         0         0         0         0         0
         0         0         0         0         0         0         0         0
         0         0         0         0         0         0         0         0
         0         0         0         0         0         0         0         0
         0         0         0         0         0         0         0         0
         0         0         0         0         0         0         0         0
         0         0         0         0         0         0         0         0
         0         0         0         0         0         0         0         0
         0         0         0         0         0         0         0         0
         0         0         0         0         0         0         0         0
         0         0         0         0         0         0         0         0
         0         0         0         0         0         0         0         0
         0         0         0         0         0         0         0         0
         0         0         0         0         0         0         0         0
         0         0         0         0         0         0         0         0
         0         0         0         0         0         0         0         0
         0         0         0         0         0         0         0         0
         0         0         0         0         0         0         0         0
         0         0         0         0         0         0         0         0
         0         0         0         0         0         0         0         0
         0         0         0         0         0         0         0         0
         0         0         0         0         0         0         0         0
         0         0         0         0         0         0         0         0
         0         0         0         0         0         0         0         0
         0         0         0         0         0         0         0         0
         0         0         0         0         0         0         0         0
         0         0         0         0         0         0         0         0
         0         0         0         0         0         0         0         0
         0         0         0         0         0         0         0         0
         0         0         0         0         0         0         0         0
         0         0         0         0         0         0         0         0
         0         0         0         0         0         0         0         0
         0         0         0         0         0         0         0         0
         0         0         0         0         0         0         0         0
         0         0         0         0         0         0         0         0
         0         0         0         0         0         0         0         0
         0         0         0         0         0         0         0         0
         0         0         0         0         0         0         0         0
         0         0         0         0         0         0         0         0
         0         0         0         0         0         0         0         0
         0         0         0         0         0         0         0         0
         0         0         0         0         0         0         0         0
         0         0         0         0         0         0         0         0
         0         0         0         0         0         0         0         0
         0         0         0         0         0         0         0         0
         0         0         0         0         0         0         0         0
         0         0         0         0         0         0         0         0
         0         0         0         0         0         0         0         0
         0         0         0         0         0         0         0         0
         0         0         0         0         0         0         0         0
         0         0         0         0         0         0         0         0
         0         0         0         0         0         0         0         0
         0         0         0         0         0         0         0         0
         0         0         0         0         0         0         0         0
         0         0         0         0         0         0         0         0
         0         0         0         0         0         0         0         0
         0         0         0         0         0         0         0         0
         0         0         0         0         0         0         0         0
         0         0         0         0         0         0         0         0
         0         0         0         0         0         0         0         0
         0         0         0         0         0         0         0         0
         0         0         0         0         0         0         0         0
         0         0         0         0         0         0         0         0
         0         0         0         0         0         0         0         0
         0         0         0         0         0         0         0         0
         0         0         0         0         0         0         0         0
         0         0         0         0         0         0         0         0
         0         0         0         0         0         0         0         0
         0         0         0         0         0         0         0         0
         0         0         0         0         0         0         0         0
         0         0         0         0         0         0         0         0
         0         0         0         0         0         0         0         0
         0         0         0         0         0         0         0         0
         0         0         0         0         0         0         0         0
         0         0         0         0         0         0         0         0
         0         0         0         0         0         0         0         0
         0         0         0         0         0         0         0         0
         0         0         0         0         0         0         0         0
         0         0         0         0         0         0         0         0
         0         0         0         0         0         0         0         0
         0         0         0         0         0         0         0         0
         0         0         0         0         0         0         0         0
         0         0         0         0         0         0         0         0
         0         0         0         0         0         0         0         0
         0         0         0         0         0         0         0         0
         0         0         0         0         0         0         0         0
         0         0         0         0         0         0         0         0
         0         0         0         0         0         0         0         0
         0         0         0         0         0         0         0         0
         0         0         0         0         0         0         0         0
         0         0         0         0         0         0         0         0
         0         0         0         0         0         0         0         0
         0         0         0         0         0         0         0         0
         0         0         0         0         0         0         0         0
         0         0         0         0         0         0         0         0
         0         0         0         0         0         0         0         0
         0         0         0         0         0         0         0         0
         0         0         0         0         0         0         0         0
         0         0         0         0         0         0         0         0
         0         0         0         0         0         0         0         0
         0         0         0         0         0         0         0         0
         0         0         0         0         0         0         0         0
         0         0         0         0         0         0         0         0
         0         0         0         0         0         0         0         0
         0         0         0         0         0         0         0         0
         0         0         0         0         0         0         0         0
         0         0         0         0         0         0         0         0
         0         0         0         0         0         0         0         0
         0         0         0         0         0         0         0         0
         0         0         0         0         0         0         0         0
         0         0         0         0         0         0         0         0
         0         0         0         0         0         0         0         0
         0         0         0         0         0         0         0         0
         0         0         0         0         0         0         0         0
         0         0         0         0         0         0         0         0
         0         0         0         0         0         0         0         0
         0         0         0         0         0         0         0         0
         0         0         0         0         0         0         0         0
         0         0         0         0         0         0         0         0
         0         0         0         0         0         0         0         0
         0         0         0         0         0         0         0         0
         0         0         0         0         0         0         0         0
         0         0         0         0         0         0         0         0
         0         0         0         0         0         0         0         0
         0         0         0         0         0         0         0         0
         0         0         0         0         0         0         0         0
         0         0         0         0         0         0         0         0
         0         0         0         0         0         0         0         0
         0         0         0         0         0         0         0         0
         0         0         0         0         0         0         0         0
         0         0         0         0         0         0         0         0
         0         0         0         0         0         0         0         0
         0         0         0         0         0         0         0         0
         0         0         0         0         0         0         0         0
         0         0         0         0         0         0         0         0
         0         0         0         0         0         0         0         0
         0         0         0         0         0         0         0         0
         0         0         0         0         0         0         0         0
         0         0         0         0         0         0         0         0
         0         0         0         0         0         0         0         0
         0         0         0         0         0         0         0         0
         0         0         0         0         0         0         0         0
         0         0         0         0         0         0         0         0
         0         0         0         0         0         0         0         0
         0         0         0         0         0         0         0         0
         0         0         0         0         0         0         0         0
         0         0         0         0         0         0         0         0
         0         0         0         0         0         0         0         0
         0         0         0         0         0         0         0         0
         0         0         0         0         0         0         0         0
         0         0         0         0         0         0         0         0
         0         0         0         0         0         0         0         0
         0         0         0         0         0         0         0         0
         0         0         0         0         0         0         0         0
         0         0         0         0         0         0         0         0
         0         0         0         0         0         0         0         0
         0         0         0         0         0         0         0         0
         0         0         0         0         0         0         0         0
         0         0         0         0         0         0         0         0
         0         0         0         0         0         0         0         0
         0         0         0         0         0         0         0         0
         0         0         0         0         0         0         0         0
         0         0         0         0         0         0         0         0
         0         0         0         0         0         0         0         0
         0         0         0         0         0         0         0         0
         0         0         0         0         0         0         0         0
         0         0         0         0         0         0         0         0
         0         0         0         0         0         0         0         0
         0         0         0         0         0         0         0         0
         0         0         0         0         0         0         0         0
         0         0         0         0         0         0         0         0
         0         0         0         0         0         0         0         0
         0         0         0         0         0         0         0         0
         0         0         0         0         0         0         0         0
         0         0         0         0         0         0         0         0
         0         0         0         0         0         0         0         0
         0         0         0         0         0         0         0         0
         0         0         0         0         0         0         0         0
         0         0         0         0         0         0         0         0
         0         0         0         0         0         0         0         0
         0         0         0         0         0         0         0         0
         0         0         0         0         0         0         0         0
         0         0         0         0         0         0         0         0
         0         0         0         0         0         0         0         0
         0         0         0         0         0         0         0         0
         0         0         0         0         0         0         0         0
         0         0         0         0         0         0         0         0
         0         0         0         0         0         0         0         0
         0         0         0         0         0         0         0         0
         0         0         0         0         0         0         0         0
         0         0         0         0         0         0         0         0
         0         0         0         0         0         0         0         0
         0         0         0         0         0         0         0         0
         0         0         0         0         0         0         0         0
         0         0         0         0         0         0         0         0
         0         0         0         0         0         0         0         0
         0         0         0         0         0         0         0         0
         0         0         0         0         0         0         0         0
         0         0         0         0         0         0         0         0
         0         0         0         0         0         0         0         0
         0         0         0         0         0         0         0         0
         0         0         0         0         0         0         0         0
         0         0         0         0         0         0         0         0
         0         0         0         0         0         0         0         0
         0         0         0         0         0         0         0         0
         0         0         0         0         0         0         0         0
         0         0         0         0         0         0         0         0
         0         0         0         0         0         0         0         0
         0         0         0         0         0         0         0         0
         0         0         0         0         0         0         0         0
         0         0         0         0         0         0         0         0
         0         0         0         0         0         0         0         0
         0         0         0         0         0         0         0         0
         0         0         0         0         0         0         0         0
         0         0         0         0         0         0         0         0
         0         0         0         0         0         0         0         0
         0         0         0         0         0         0         0         0
         0         0         0         0         0         0         0         0
         0         0         0         0         0         0         0         0
         0         0         0         0         0         0         0         0
         0         0         0         0         0         0         0         0
         0         0         0         0         0         0         0         0
         0         0         0         0         0         0         0         0
         0         0         0         0         0         0         0         0
         0         0         0         0         0         0         0         0
         0         0         0         0         0         0         0         0
         0         0         0         0         0         0         0         0
         0         0         0         0         0         0         0         0
         0         0         0         0         0         0         0         0
         0         0         0         0         0         0         0         0
         0         0         0         0         0         0         0         0
         0         0         0         0         0         0         0         0
         0         0         0         0         0         0         0         0
         0         0         0         0         0         0         0         0
         0         0         0         0         0         0         0         0
         0         0         0         0         0         0         0         0
         0         0         0         0         0         0         0         0
         0         0         0         0         0         0         0         0
         0         0         0         0         0         0         0         0
         0         0         0         0         0         0         0         0
         0         0         0         0         0         0         0         0
         0         0         0         0         0         0         0         0
         0         0         0         0         0         0         0         0
         0         0         0         0         0         0         0         0
         0         0         0         0         0         0         0         0
         0         0         0         0         0         0         0         0
         0         0         0         0         0         0         0         0
         0         0         0         0         0         0         0         0
         0         0         0         0         0         0         0         0
         0         0         0         0         0         0         0         0
         0         0         0         0         0         0         0         0
         0         0         0         0         0         0         0         0
         0         0         0         0         0         0         0         0
         0         0         0         0         0         0         0         0
         0         0         0         0         0         0         0         0
         0         0         0         0         0         0         0         0
         0         0         0         0         0         0         0         0
         0         0         0         0         0         0         0         0
         0         0         0         0         0         0         0         0
         0         0         0         0         0         0         0         0
         0         0         0         0         0         0         0         0
         0         0         0         0         0         0         0         0
         0         0         0         0         0         0         0         0
         0         0         0         0         0         0         0         0
         0         0         0         0         0         0         0         0
         0         0         0         0         0         0         0         0
         0         0         0         0         0         0         0         0
         0         0         0         0         0         0         0         0
         0         0         0         0         0         0         0         0
         0         0         0         0         0         0         0         0
         0         0         0         0         0         0         0         0
         0         0         0         0         0         0         0         0
         0         0         0         0         0         0         0         0
         0         0         0         0         0         0         0         0
         0         0         0         0         0         0         0         0
         0         0         0         0         0         0         0         0
         0         0         0         0         0         0         0         0
         0         0         0         0         0         0         0         0
         0         0         0         0         0         0         0         0
         0         0         0         0         0         0         0         0
         0         0         0         0         0         0         0         0
         0         0         0         0         0         0         0         0
         0         0         0         0         0         0         0         0
         0         0         0         0         0         0         0         0
         0         0         0         0         0         0         0         0
         0         0         0         0         0         0         0         0
         0         0         0         0         0         0         0         0
         0         0         0         0         0         0         0         0
         0         0         0         0         0         0         0         0
         0         0         0         0         0         0         0         0
         0         0         0         0         0         0         0         0
         0         0         0         0         0         0         0         0
         0         0         0         0         0         0         0         0
         0         0         0         0         0         0         0         0
         0         0         0         0         0         0         0         0
         0         0         0         0         0         0         0         0
         0         0         0         0         0         0         0         0
         0         0         0         0         0         0         0         0
         0         0         0         0         0         0         0         0
         0         0         0         0         0         0         0         0
         0         0         0         0         0         0         0         0
         0         0         0         0         0         0         0         0
         0         0         0         0         0         0         0         0
         0         0         0         0         0         0         0         0
         0         0         0         0         0         0         0         0
         0         0         0         0         0         0         0         0
         0         0         0         0         0         0         0         0
         0         0         0         0         0         0         0         0
         0         0         0         0         0         0         0         0
         0         0         0         0         0         0         0         0
         0         0         0         0         0         0         0         0
         0         0         0         0         0         0         0         0
         0         0         0         0         0         0         0         0
         0         0         0         0         0         0         0         0
         0         0         0         0         0         0         0         0
         0         0         0         0         0         0         0         0
         0         0         0         0         0         0         0         0
         0         0         0         0         0         0         0         0
         0         0         0         0         0         0         0         0
         0         0         0         0         0         0         0         0
         0         0         0         0         0         0         0         0
         0         0         0         0         0         0         0         0
         0         0         0         0         0         0         0         0
         0         0         0         0         0         0         0         0
         0         0         0         0         0         0         0         0
         0         0         0         0         0         0         0         0
         0         0         0         0         0         0         0         0
         0         0         0         0         0         0         0         0
         0         0         0         0         0         0         0         0
         0         0         0         0         0         0         0         0
         0         0         0         0         0         0         0         0
         0         0         0         0         0         0         0         0
         0         0         0         0         0         0         0         0
         0         0         0         0         0         0         0         0
         0         0         0         0         0         0         0         0
         0         0         0         0         0         0         0         0
         0         0         0         0         0         0         0         0
         0         0         0         0         0         0         0         0
         0         0         0         0         0         0         0         0
         0         0         0         0         0         0         0         0
         0         0         0         0         0         0         0         0
         0         0         0         0         0         0         0         0
         0         0         0         0         0         0         0         0
         0         0         0         0         0         0         0         0
         0         0         0         0         0         0         0         0
         0         0         0         0         0         0         0         0
         0         0         0         0         0         0         0         0
         0         0         0         0         0         0         0         0
         0         0         0         0         0         0         0         0
         0         0         0         0         0         0         0         0
         0         0         0         0         0         0         0         0
         0         0         0         0         0         0         0         0
         0         0         0         0         0         0         0         0
         0         0         0         0         0         0         0         0
         0         0         0         0         0         0         0         0
         0         0         0         0         0         0         0         0
         0         0         0         0         0         0         0         0
         0         0         0         0         0         0         0         0
         0         0         0         0         0         0         0         0
         0         0         0         0         0         0         0         0
         0         0         0         0         0         0         0         0
         0         0         0         0         0         0         0         0
         0         0         0         0         0         0         0         0
         0         0         0         0         0         0         0         0
         0         0         0         0         0         0         0         0
         0         0         0         0         0         0         0         0
         0         0         0         0         0         0         0         0
         0         0         0         0         0         0         0         0
         0         0         0         0         0         0         0         0
         0         0         0         0         0         0         0         0
         0         0         0         0         0         0         0         0
         0         0         0         0         0         0         0         0
         0         0         0         0         0         0         0         0
         0         0         0         0         0         0         0         0
         0         0         0         0         0         0         0         0
         0         0         0         0         0         0         0         0
         0         0         0         0         0         0         0         0
         0         0         0         0         0         0         0         0
         0         0         0         0         0         0         0         0
         0         0         0         0         0         0         0         0
         0         0         0         0         0         0         0         0
         0         0         0         0         0         0         0         0
         0         0         0         0         0         0         0         0
         0         0         0         0         0         0         0         0
         0         0         0         0         0         0         0         0
         0         0         0         0         0         0         0         0
         0         0         0         0         0         0         0         0
         0         0         0         0         0         0         0         0
         0         0         0         0         0         0         0         0
         0         0         0         0         0         0         0         0
         0         0         0         0         0         0         0         0
         0         0         0         0         0         0         0         0
         0         0         0         0         0         0         0         0
         0         0         0         0         0         0         0         0
         0         0         0         0         0         0         0         0
         0         0         0         0         0         0         0         0
         0         0         0         0         0         0         0         0
         0         0         0         0         0         0         0         0
         0         0         0         0         0         0         0         0
         0         0         0         0         0         0         0         0
         0         0         0         0         0         0         0         0
         0         0         0         0         0         0         0         0
         0         0         0         0         0         0         0         0
         0         0         0         0         0         0         0         0
         0         0         0         0         0         0         0         0
         0         0         0         0         0         0         0         0
         0         0         0         0         0         0         0         0
         0         0         0         0         0         0         0         0
         0         0         0         0         0         0         0         0
         0         0         0         0         0         0         0         0
         0         0         0         0         0         0         0         0
         0         0         0         0         0         0         0         0
         0         0         0         0         0         0         0         0
         0         0         0         0         0         0         0         0
         0         0         0         0         0         0         0         0
         0         0         0         0         0         0         0         0
         0         0         0         0         0         0         0         0
         0         0         0         0         0         0         0         0
         0         0         0         0         0         0         0         0
         0         0         0         0         0         0         0         0
         0         0         0         0         0         0         0         0
         0         0         0         0         0         0         0         0
         0         0         0         0         0         0         0         0
         0         0         0         0         0         0         0         0
         0         0         0         0         0         0         0         0
         0         0         0         0         0         0         0         0
         0         0         0         0         0         0         0         0
         0         0         0         0         0         0         0         0
         0         0         0         0         0         0         0         0
         0         0         0         0         0         0         0         0
         0         0         0         0         0         0         0         0
         0         0         0         0         0         0         0         0
         0         0         0         0         0         0         0         0
         0         0         0         0         0         0         0         0
         0         0         0         0         0         0         0         0
         0         0         0         0         0         0         0         0
         0         0         0         0         0         0         0         0
         0         0         0         0         0         0         0         0
         0         0         0         0         0         0         0         0
         0         0         0         0         0         0         0         0
         0         0         0         0         0         0         0         0
         0         0         0         0         0         0         0         0
         0         0         0         0         0         0         0         0
         0         0         0         0         0         0         0         0
         0         0         0         0         0         0         0         0
         0         0         0         0         0         0         0         0
         0         0         0         0         0         0         0         0
         0         0         0         0         0         0         0         0
         0         0         0         0         0         0         0         0
         0         0         0         0         0         0         0         0
         0         0         0         0         0         0         0         0
         0         0         0         0         0         0         0         0
         0         0         0         0         0         0         0         0
         0         0         0         0         0         0         0         0
         0         0         0         0         0         0         0         0
         0         0         0         0         0         0         0         0
         0         0         0         0         0         0         0         0
         0         0         0         0         0         0         0         0
         0         0         0         0         0         0         0         0
         0         0         0         0         0         0         0         0
         0         0         0         0         0         0         0         0
         0         0         0         0         0         0         0         0
         0         0         0         0         0         0         0         0
         0         0         0         0         0         0         0         0
         0         0         0         0         0         0         0         0
         0         0         0         0         0         0         0         0
         0         0         0         0         0         0         0         0
         0         0         0         0         0         0         0         0
         0         0         0         0         0         0         0         0
         0         0         0         0         0         0         0         0
         0         0         0         0         0         0         0         0
         0         0         0         0         0         0         0         0
         0         0         0         0         0         0         0         0
         0         0         0         0         0         0         0         0
         0         0         0         0         0         0         0         0
         0         0         0         0         0         0         0         0
         0         0         0         0         0         0         0         0
         0         0         0         0         0         0         0         0
         0         0         0         0         0         0         0         0
         0         0         0         0         0         0         0         0
         0         0         0         0         0         0         0         0
         0         0         0         0         0         0         0         0
         0         0         0         0         0         0         0         0
         0         0         0         0         0         0         0         0
         0         0         0         0         0         0         0         0
         0         0         0         0         0         0         0         0
         0         0         0         0         0         0         0         0
         0         0         0         0         0         0         0         0
         0         0         0         0         0         0         0         0
         0         0         0         0         0         0         0         0
         0         0         0         0         0         0         0         0
         0         0         0         0         0         0         0         0
         0         0         0         0         0         0         0         0
         0         0         0         0         0         0         0         0
         0         0         0         0         0         0         0         0
         0         0         0         0         0         0         0         0
         0         0         0         0         0         0         0         0
         0         0         0         0         0         0         0         0
         0         0         0         0         0         0         0         0
         0         0         0         0         0         0         0         0
         0         0         0         0         0         0         0         0
         0         0         0         0         0         0         0         0
         0         0         0         0         0         0         0         0
         0         0         0         0         0         0         0         0
         0         0         0         0         0         0         0         0
         0         0         0         0         0         0         0         0
         0         0         0         0         0         0         0         0
         0         0         0         0         0         0         0         0
         0         0         0         0         0         0         0         0
         0         0         0         0         0         0         0         0
         0         0         0         0         0         0         0         0
         0         0         0         0         0         0         0         0
         0         0         0         0         0         0         0         0
         0         0         0         0         0         0         0         0
         0         0         0         0         0         0         0         0
         0         0         0         0         0         0         0         0
         0         0         0         0         0         0         0         0
         0         0         0         0         0         0         0         0
         0         0         0         0         0         0         0         0
         0         0         0         0         0         0         0         0
         0         0         0         0         0         0         0         0
         0         0         0         0         0         0         0         0
         0         0         0         0         0         0         0         0
         0         0         0         0         0         0         0         0
         0         0         0         0         0         0         0         0
         0         0         0         0         0         0         0         0
         0         0         0         0         0         0         0         0
         0         0         0         0         0         0         0         0
         0         0         0         0         0         0         0         0
         0         0         0         0         0         0         0         0
         0         0         0         0         0         0         0         0
         0         0         0         0         0         0         0         0
         0         0         0         0         0         0         0         0
         0         0         0         0         0         0         0         0
         0         0         0         0         0         0         0         0
         0         0         0         0         0         0         0         0
         0         0         0         0         0         0         0         0
         0         0         0         0         0         0         0         0
         0         0         0         0         0         0         0         0
         0         0         0         0         0         0         0         0
         0         0         0         0         0         0         0         0
         0         0         0         0         0         0         0         0
         0         0         0         0         0         0         0         0
         0         0         0         0         0         0         0         0
         0         0         0         0         0         0         0         0
         0         0         0         0         0         0         0         0
         0         0         0         0         0         0         0         0
         0         0         0         0         0         0         0         0
         0         0         0         0         0         0         0         0
         0         0         0         0         0         0         0         0
         0         0         0         0         0         0         0         0
         0         0         0         0         0         0         0         0
         0         0         0         0         0         0         0         0
         0         0         0         0         0         0         0         0
         0         0         0         0         0         0         0         0
         0         0         0         0         0         0         0         0
         0         0         0         0         0         0         0         0
         0         0         0         0         0         0         0         0
         0         0         0         0         0         0         0         0
         0         0         0         0         0         0         0         0
         0         0         0         0         0         0         0         0
         0         0         0         0         0         0         0         0
         0         0         0         0         0         0         0         0
         0         0         0         0         0         0         0         0
         0         0         0         0         0         0         0         0
         0         0         0         0         0         0         0         0
         0         0         0         0         0         0         0         0
         0         0         0         0         0         0         0         0
         0         0         0         0         0         0         0         0
         0         0         0         0         0         0         0         0
         0         0         0         0         0         0         0         0
         0         0         0         0         0         0         0         0
         0         0         0         0         0         0         0         0
         0         0         0         0         0         0         0         0
         0         0         0         0         0         0         0         0
         0         0         0         0         0         0         0         0
         0         0         0         0         0         0         0         0
         0         0         0         0         0         0         0         0
         0         0         0         0         0         0         0         0
         0         0         0         0         0         0         0         0
         0         0         0         0         0         0         0         0
         0         0         0         0         0         0         0         0
         0         0         0         0         0         0         0         0
         0         0         0         0         0         0         0         0
         0         0         0         0         0         0         0         0
         0         0         0         0         0         0         0         0
         0         0         0         0         0         0         0         0
         0         0         0         0         0         0         0         0
         0         0         0         0         0         0         0         0
         0         0         0         0         0         0         0         0
         0         0         0         0         0         0         0         0
         0         0         0         0         0         0         0         0
         0         0         0         0         0         0         0         0
         0         0         0         0         0         0         0         0
         0         0         0         0         0         0         0         0
         0         0         0         0         0         0         0         0
         0         0         0         0         0         0         0         0
         0         0         0         0         0         0         0         0
         0         0         0         0         0         0         0         0
         0         0         0         0         0         0         0         0
         0         0         0         0         0         0         0         0
         0         0         0         0         0         0         0         0
         0         0         0         0         0         0         0         0
         0         0         0         0         0         0         0         0
         0         0         0         0         0         0         0         0
         0         0         0         0         0         0         0         0
         0         0         0         0         0         0         0         0
         0         0         0         0         0         0         0         0
         0         0         0         0         0         0         0         0
         0         0         0         0         0         0         0         0
         0         0         0         0         0         0         0         0
         0         0         0         0         0         0         0         0
         0         0         0         0         0         0         0         0
         0         0         0         0         0         0         0         0
         0         0         0         0         0         0         0         0
         0         0         0         0         0         0         0         0
         0         0         0         0         0         0         0         0
         0         0         0         0         0         0         0         0
         0         0         0         0         0         0         0         0
         0         0         0         0         0         0         0         0
         0         0         0         0         0         0         0         0
         0         0         0         0         0         0         0         0
         0         0         0         0         0         0         0         0
         0         0         0         0         0         0         0         0
         0         0         0         0         0         0         0         0
         0         0         0         0         0         0         0         0
         0         0         0         0         0         0         0         0
         0         0         0         0         0         0         0         0
         0         0         0         0         0         0         0         0
         0         0         0         0         0         0         0         0
         0         0         0         0         0         0         0         0
         0         0         0         0         0         0         0         0
         0         0         0         0         0         0         0         0
         0         0         0         0         0         0         0         0
         0         0         0         0         0         0         0         0
         0         0         0         0         0         0         0         0
         0         0         0         0         0         0         0         0
         0         0         0         0         0         0         0         0
         0         0         0         0         0         0         0         0
         0         0         0         0         0         0         0         0
         0         0         0         0         0         0         0         0
         0         0         0         0         0         0         0         0
         0         0         0         0         0         0         0         0
         0         0         0         0         0         0         0         0
         0         0         0         0         0         0         0         0
         0         0         0         0         0         0         0         0
         0         0         0         0         0         0         0         0
         0         0         0         0         0         0         0         0
         0         0         0         0         0         0         0         0
         0         0         0         0         0         0         0         0
         0         0         0         0         0         0         0         0
         0         0         0         0         0         0         0         0
         0         0         0         0         0         0         0         0
         0         0         0         0         0         0         0         0
         0         0         0         0         0         0         0         0
         0         0         0         0         0         0         0         0
         0         0         0         0         0         0         0         0
         0         0         0         0         0         0         0         0
         0         0         0         0         0         0         0         0
         0         0         0         0         0         0         0         0
         0         0         0         0         0         0         0         0
         0         0         0         0         0         0         0         0
         0         0         0         0         0         0         0         0
         0         0         0         0         0         0         0         0
         0         0         0         0         0         0         0         0
         0         0         0         0         0         0         0         0
         0         0         0         0         0         0         0         0
         0         0         0         0         0         0         0         0
         0         0         0         0         0         0         0         0
         0         0         0         0         0         0         0         0
         0         0         0         0         0         0         0         0
         0         0         0         0         0         0         0         0
         0         0         0         0         0         0         0         0
         0         0         0         0         0         0         0         0
         0         0         0         0         0         0         0         0
         0         0         0         0         0         0         0         0
         0         0         0         0         0         0         0         0
         0         0         0         0         0         0         0         0
         0         0         0         0         0         0         0         0
         0         0         0         0         0         0         0         0
         0         0         0         0         0         0         0         0
         0         0         0         0         0         0         0         0
         0         0         0         0         0         0         0         0
         0         0         0         0         0         0         0         0
         0         0         0         0         0         0         0         0
         0         0         0         0         0         0         0         0
         0         0         0         0         0         0         0         0
         0         0         0         0         0         0         0         0
         0         0         0         0         0         0         0         0
         0         0         0         0         0         0         0         0
         0         0         0         0         0         0         0         0
         0         0         0         0         0         0         0         0
         0         0         0         0         0         0         0         0
         0         0         0         0         0         0         0         0
         0         0         0         0         0         0         0         0
         0         0         0         0         0         0         0         0
         0         0         0         0         0         0         0         0
         0         0         0         0         0         0         0         0
         0         0         0         0         0         0         0         0
         0         0         0         0         0         0         0         0
         0         0         0         0         0         0         0         0
         0         0         0         0         0         0         0         0
         0         0         0         0         0         0         0         0
         0         0         0         0         0         0         0         0
         0         0         0         0         0         0         0         0
         0         0         0         0         0         0         0         0
         0         0         0         0         0         0         0         0
         0         0         0         0         0         0         0         0
         0         0         0         0         0         0         0         0
         0         0         0         0         0         0         0         0
         0         0         0         0         0         0         0         0
         0         0         0         0         0         0         0         0
         0         0         0         0         0         0         0         0
         0         0         0         0         0         0         0         0
         0         0         0         0         0         0         0         0
         0         0         0         0         0         0         0         0
         0         0         0         0         0         0         0         0
         0         0         0         0         0         0         0         0
         0         0         0         0         0         0         0         0
         0         0         0         0         0         0         0         0
         0         0         0         0         0         0         0         0
         0         0         0         0         0         0         0         0
         0         0         0         0         0         0         0         0
         0         0         0         0         0         0         0         0
         0         0         0         0         0         0         0         0
         0         0         0         0         0         0         0         0
         0         0         0         0         0         0         0         0
         0         0         0         0         0         0         0         0
         0         0         0         0         0         0         0         0
         0         0         0         0         0         0         0         0
         0         0         0         0         0         0         0         0
         0         0         0         0         0         0         0         0
         0         0         0         0         0         0         0         0
         0         0         0         0         0         0         0         0
         0         0         0         0         0         0         0         0
         0         0         0         0         0         0         0         0
         0         0         0         0         0         0         0         0
         0         0         0         0         0         0         0         0
         0         0         0         0         0         0         0         0
         0         0         0         0         0         0         0         0
         0         0         0         0         0         0         0         0
         0         0         0         0         0         0         0         0
         0         0         0         0         0         0         0         0
         0         0         0         0         0         0         0         0
         0         0         0         0         0         0         0         0
         0         0         0         0         0         0         0         0
         0         0         0         0         0         0         0         0
         0         0         0         0         0         0         0         0
         0         0         0         0         0         0         0         0
         0         0         0         0         0         0         0         0
         0         0         0         0         0         0         0         0
         0         0         0         0         0         0         0         0
         0         0         0         0         0         0         0         0
         0         0         0         0         0         0         0         0
         0         0         0         0         0         0         0         0
         0         0         0         0         0         0         0         0
         0         0         0         0         0         0         0         0
         0         0         0         0         0         0         0         0
         0         0         0         0         0         0         0         0
         0         0         0         0         0         0         0         0
         0         0         0         0         0         0         0         0
         0         0         0         0         0         0         0         0
         0         0         0         0         0         0         0         0
         0         0         0         0         0         0         0         0
         0         0         0         0         0         0         0         0
         0         0         0         0         0         0         0         0
         0         0         0         0         0         0         0         0
         0         0         0         0         0         0         0         0
         0         0         0         0         0         0         0         0
         0         0         0         0         0         0         0         0
         0         0         0         0         0         0         0         0
         0         0         0         0         0         0         0         0
         0         0         0         0         0         0         0         0
         0         0         0         0         0         0         0         0
         0         0         0         0         0         0         0         0
         0         0         0         0         0         0         0         0
         0         0         0         0         0         0         0         0
         0         0         0         0         0         0         0         0
         0         0         0         0         0         0         0         0
         0         0         0         0         0         0         0         0
         0         0         0         0         0         0         0         0
         0         0         0         0         0         0         0         0
         0         0         0         0         0         0         0         0
         0         0         0         0         0         0         0         0
         0         0         0         0         0         0         0         0
         0         0         0         0         0         0         0         0
         0         0         0         0         0         0         0         0
         0         0         0         0         0         0         0         0
         0         0         0         0         0         0         0         0
         0         0         0         0         0         0         0         0
         0         0         0         0         0         0         0         0
         0         0         0         0         0         0         0         0
         0         0         0         0         0         0         0         0
         0         0         0         0         0         0         0         0
         0         0         0         0         0         0         0         0
         0         0         0         0         0         0         0         0
         0         0         0         0         0         0         0         0
         0         0         0         0         0         0         0         0
         0         0         0         0         0         0         0         0
         0         0         0         0         0         0         0         0
         0         0         0         0         0         0         0         0
         0         0         0         0         0         0         0         0
         0         0         0         0         0         0         0         0
         0         0         0         0         0         0         0         0
         0         0         0         0         0         0         0         0
         0         0         0         0         0         0         0         0
         0         0         0         0         0         0         0         0
         0         0         0         0         0         0         0         0
         0         0         0         0         0         0         0         0
         0         0         0         0         0         0         0         0
         0         0         0         0         0         0         0         0
         0         0         0         0         0         0         0         0
         0         0         0         0         0         0         0         0
         0         0         0         0         0         0         0         0
         0         0         0         0         0         0         0         0
         0         0         0         0         0         0         0         0
         0         0         0         0         0         0         0         0
         0         0         0         0         0         0         0         0
         0         0         0         0         0         0         0         0
         0         0         0         0         0         0         0         0
         0         0         0         0         0         0         0         0
         0         0         0         0         0         0         0         0
         0         0         0         0         0         0         0         0
         0         0         0         0         0         0         0         0
         0         0         0         0         0         0         0         0
         0         0         0         0         0         0         0         0
         0         0         0         0         0         0         0         0
         0         0         0         0         0         0         0         0
         0         0         0         0         0         0         0         0
         0         0         0         0         0         0         0         0
         0         0         0         0         0         0         0         0
         0         0         0         0         0         0         0         0
         0         0         0         0         0         0         0         0
         0         0         0         0         0         0         0         0
         0         0         0         0         0         0         0         0
         0         0         0         0         0         0         0         0
         0         0         0         0         0         0         0         0
         0         0         0         0         0         0         0         0
         0         0         0         0         0         0         0         0
         0         0         0         0         0         0         0         0
         0         0         0         0         0         0         0         0
         0         0         0         0         0         0         0         0
         0         0         0         0         0         0         0         0
         0         0         0         0         0         0         0         0
         0         0         0         0         0         0         0         0
         0         0         0         0         0         0         0         0
         0         0         0         0         0         0         0         0
         0         0         0         0         0         0         0         0
         0         0         0         0         0         0         0         0
         0         0         0         0         0         0         0         0
         0         0         0         0         0         0         0         0
         0         0         0         0         0         0         0         0
         0         0         0         0         0         0         0         0
         0         0         0         0         0         0         0         0
         0         0         0         0         0         0         0         0
         0         0         0         0         0         0         0         0
         0         0         0         0         0         0         0         0
         0         0         0         0         0         0         0         0
         0         0         0         0         0         0         0         0
         0         0         0         0         0         0         0         0
         0         0         0         0         0         0         0         0
         0         0         0         0         0         0         0         0
         0         0         0         0         0         0         0         0
         0         0         0         0         0         0         0         0
         0         0         0         0         0         0         0         0
         0         0         0         0         0         0         0         0
         0         0         0         0         0         0         0         0
         0         0         0         0         0         0         0         0
         0         0         0         0         0         0         0         0
         0         0         0         0         0         0         0         0
         0         0         0         0         0         0         0         0
         0         0         0         0         0         0         0         0
         0         0         0         0         0         0         0         0
         0         0         0         0         0         0         0         0
         0         0         0         0         0         0         0         0
         0         0         0         0         0         0         0         0
         0         0         0         0         0         0         0         0
         0         0         0         0         0         0         0         0
         0         0         0         0         0         0         0         0
         0         0         0         0         0         0         0         0
         0         0         0         0         0         0         0         0
         0         0         0         0         0         0         0         0
         0         0         0         0         0         0         0         0
         0         0         0         0         0         0         0         0
         0         0         0         0         0         0         0         0
         0         0         0         0         0         0         0         0
         0         0         0         0         0         0         0         0
         0         0         0         0         0         0         0         0
         0         0         0         0         0         0         0         0
         0         0         0         0         0         0         0         0
         0         0         0         0         0         0         0         0
         0         0         0         0         0         0         0         0
         0         0         0         0         0         0         0         0
         0         0         0         0         0         0         0         0
         0         0         0         0         0         0         0         0
         0         0         0         0         0         0         0         0
         0         0         0         0         0         0         0         0
         0         0         0         0         0         0         0         0
         0         0         0         0         0         0         0         0
         0         0         0         0         0         0         0         0
         0         0         0         0         0         0         0         0
         0         0         0         0         0         0         0         0
         0         0         0         0         0         0         0         0
         0         0         0         0         0         0         0         0
         0         0         0         0         0         0         0         0
         0         0         0         0         0         0         0         0
         0         0         0         0         0         0         0         0
         0         0         0         0         0         0         0         0
         0         0         0         0         0         0         0         0
         0         0         0         0         0         0         0         0
         0         0         0         0         0         0         0         0
         0         0         0         0         0         0         0         0
         0         0         0         0         0         0         0         0
         0         0         0         0         0         0         0         0
         0         0         0         0         0         0         0         0
         0         0         0         0         0         0         0         0
         0         0         0         0         0         0         0         0
         0         0         0         0         0         0         0         0
         0         0         0         0         0         0         0         0
         0         0         0         0         0         0         0         0
         0         0         0         0         0         0         0         0
         0         0         0         0         0         0         0         0
         0         0         0         0         0         0         0         0
         0         0         0         0         0         0         0         0
         0         0         0         0         0         0         0         0
         0         0         0         0         0         0         0         0
         0         0         0         0         0         0         0         0
         0         0         0         0         0         0         0         0
         0         0         0         0         0         0         0         0
         0         0         0         0         0         0         0         0
         0         0         0         0         0         0         0         0
         0         0         0         0         0         0         0         0
         0         0         0         0         0         0         0         0
         0         0         0         0         0         0         0         0
         0         0         0         0         0         0         0         0
         0         0         0         0         0         0         0         0
         0         0         0         0         0         0         0         0
         0         0         0         0         0         0         0         0
         0         0         0         0         0         0         0         0
         0         0         0         0         0         0         0         0
         0         0         0         0         0         0         0         0
         0         0         0         0         0         0         0         0
         0         0         0         0         0         0         0         0
         0         0         0         0         0         0         0         0
         0         0         0         0         0         0         0         0
         0         0         0         0         0         0         0         0
         0         0         0         0         0         0         0         0
         0         0         0         0         0         0         0         0
         0         0         0         0         0         0         0         0
         0         0         0         0         0         0         0         0
         0         0         0         0         0         0         0         0
         0         0         0         0         0         0         0         0
         0         0         0         0         0         0         0         0
         0         0         0         0         0         0         0         0
         0         0         0         0         0         0         0         0
         0         0         0         0         0         0         0         0
         0         0         0         0         0         0         0         0
         0         0         0         0         0         0         0         0
         0         0         0         0         0         0         0         0
         0         0         0         0         0         0         0         0
         0         0         0         0         0         0         0         0
         0         0         0         0         0         0         0         0
         0         0         0         0         0         0         0         0
         0         0         0         0         0         0         0         0
         0         0         0         0         0         0         0         0
         0         0         0         0         0         0         0         0
         0         0         0         0         0         0         0         0
         0         0         0         0         0         0         0         0
         0         0         0         0         0         0         0         0
         0         0         0         0         0         0         0         0
         0         0         0         0         0         0         0         0
         0         0         0         0         0         0         0         0
         0         0         0         0         0         0         0         0
         0         0         0         0         0         0         0         0
         0         0         0         0         0         0         0         0
         0         0         0         0         0         0         0         0
         0         0         0         0         0         0         0         0
         0         0         0         0         0         0         0         0
         0         0         0         0         0         0         0         0
         0         0         0         0         0         0         0         0
         0         0         0         0         0         0         0         0
         0         0         0         0         0         0         0         0
         0         0         0         0         0         0         0         0
         0         0         0         0         0         0         0         0
         0         0         0         0         0         0         0         0
         0         0         0         0         0         0         0         0
         0         0         0         0         0         0         0         0
         0         0         0         0         0         0         0         0
         0         0         0         0         0         0         0         0
         0         0         0         0         0         0         0         0
         0         0         0         0         0         0         0         0
         0         0         0         0         0         0         0         0
         0         0         0         0         0         0         0         0
         0         0         0         0         0         0         0         0
         0         0         0         0         0         0         0         0
         0         0         0         0         0         0         0         0
         0         0         0         0         0         0         0         0
         0         0         0         0         0         0         0         0
         0         0         0         0         0         0         0         0
         0         0         0         0         0         0         0         0
         0         0         0         0         0         0         0         0
         0         0         0         0         0         0         0         0
         0         0         0         0         0         0         0         0
         0         0         0         0         0         0         0         0
         0         0         0         0         0         0         0         0
         0         0         0         0         0         0         0         0
         0         0         0         0         0         0         0         0
         0         0         0         0         0         0         0         0
         0         0         0         0         0         0         0         0
         0         0         0         0         0         0         0         0
         0         0         0         0         0         0         0         0
         0         0         0         0         0         0         0         0
         0         0         0         0         0         0         0         0
         0         0         0         0         0         0         0         0
         0         0         0         0         0         0         0         0
         0         0         0         0         0         0         0         0
         0         0         0         0         0         0         0         0
         0         0         0         0         0         0         0         0
         0         0         0         0         0         0         0         0
         0         0         0         0         0         0         0         0
         0         0         0         0         0         0         0         0
         0         0         0         0         0         0         0         0
         0         0         0         0         0         0         0         0
         0         0         0         0         0         0         0         0
         0         0         0         0         0         0         0         0
         0         0         0         0         0         0         0         0
         0         0         0         0         0         0         0         0
         0         0         0         0         0         0         0         0
         0         0         0         0         0         0         0         0
         0         0         0         0         0         0         0         0
         0         0         0         0         0         0         0         0
         0         0         0         0         0         0         0         0
         0         0         0         0         0         0         0         0
         0         0         0         0         0         0         0         0
         0         0         0         0         0         0         0         0
         0         0         0         0         0         0         0         0
         0         0         0         0         0         0         0         0
         0         0         0         0         0         0         0         0
         0         0         0         0         0         0         0         0
         0         0         0         0         0         0         0         0
         0         0         0         0         0         0         0         0
         0         0         0         0         0         0         0         0
         0         0         0         0         0         0         0         0
         0         0         0         0         0         0         0         0
         0         0         0         0         0         0         0         0
         0         0         0         0         0         0         0         0
         0         0         0         0         0         0         0         0
         0         0         0         0         0         0         0         0
         0         0         0         0         0         0         0         0
         0         0         0         0         0         0         0         0
         0         0         0         0         0         0         0         0
         0         0         0         0         0         0         0         0
         0         0         0         0         0         0         0         0
         0         0         0         0         0         0         0         0
         0         0         0         0         0         0         0         0
         0         0         0         0         0         0         0         0
         0         0         0         0         0         0         0         0
         0         0         0         0         0         0         0         0
         0         0         0         0         0         0         0         0
         0         0         0         0         0         0         0         0
         0         0         0         0         0         0         0         0
         0         0         0         0         0         0         0         0
         0         0         0         0         0         0         0         0
         0         0         0         0         0         0         0         0
         0         0         0         0         0         0         0         0
         0         0         0         0         0         0         0         0
         0         0         0         0         0         0         0         0
         0         0         0         0         0         0         0         0
         0         0         0         0         0         0         0         0
         0         0         0         0         0         0         0         0
         0         0         0         0         0         0         0         0
         0         0         0         0         0         0         0         0
         0         0         0         0         0         0         0         0
         0         0         0         0         0         0         0         0
         0         0         0         0         0         0         0         0
         0         0         0         0         0         0         0         0
         0         0         0         0         0         0         0         0
         0         0         0         0         0         0         0         0
         0         0         0         0         0         0         0         0
         0         0         0         0         0         0         0         0
         0         0         0         0         0         0         0         0
         0         0         0         0         0         0         0         0
         0         0         0         0         0         0         0         0
         0         0         0         0         0         0         0         0
         0         0         0         0         0         0         0         0
         0         0         0         0         0         0         0         0
         0         0         0         0         0         0         0         0
         0         0         0         0         0         0         0         0
         0         0         0         0         0         0         0         0
         0         0         0         0
     11162     11161     11163         0         1
     11165     11164     11166         0         1
     11168     11167     11169         0         1
     11171     11170     11172         0         1
     11174     11173     11175         0         1
     11177     11176     11178         0         1
     11180     11179     11181         0         1
     11183     11182     11184         0         1
     11186     11185     11187         0         1
     11189     11188     11190         0         1
     11192     11191     11193         0         1
     11195     11194     11196         0         1
     11198     11197     11199         0         1
     11201     11200     11202         0         1
     11204     11203     11205         0         1
     11207     11206     11208         0         1
     11210     11209     11211         0         1
     11213     11212     11214         0         1
     11216     11215     11217         0         1
     11219     11218     11220         0         1
     11222     11221     11223         0         1
     11225     11224     11226         0         1
     11228     11227     11229         0         1
     11231     11230     11232         0         1
     11234     11233     11235         0         1
     11237     11236     11238         0         1
     11240     11239     11241         0         1
     11243     11242     11244         0         1
     11246     11245     11247         0         1
     11249     11248     11250         0         1
     11252     11251     11253         0         1
     11255     11254     11256         0         1
     11258     11257     11259         0         1
     11261     11260     11262         0         1
     11264     11263     11265         0         1
     11267     11266     11268         0         1
     11270     11269     11271         0         1
     11273     11272     11274         0         1
     11276     11275     11277         0         1
     11279     11278     11280         0         1
     11282     11281     11283         0         1
     11285     11284     11286         0         1
     11288     11287     11289         0         1
     11291     11290     11292         0         1
     11294     11293     11295         0         1
     11297     11296     11298         0         1
