PSF EXT CMAP XPLOR AUTOG

         3 !NTITLE
* GENERATED BY CHARMM-GUI (HTTP://WWW.CHARMM-GUI.ORG) V3.7 ON OCT, 21. 2024. JOB
* GENERATES WATER BOX TO SOLVATE THE PROTEIN/MEMBRANE COMPLEX                   
*  DATE:    10/21/24     14: 0:12      CREATED BY USER: apache                  

      5178 !NATOM
         1 W2       1        TIP3     OH2      OT      -0.834000       15.9994           0
         2 W2       1        TIP3     H1       HT       0.417000       1.00800           0
         3 W2       1        TIP3     H2       HT       0.417000       1.00800           0
         4 W2       2        TIP3     OH2      OT      -0.834000       15.9994           0
         5 W2       2        TIP3     H1       HT       0.417000       1.00800           0
         6 W2       2        TIP3     H2       HT       0.417000       1.00800           0
         7 W2       3        TIP3     OH2      OT      -0.834000       15.9994           0
         8 W2       3        TIP3     H1       HT       0.417000       1.00800           0
         9 W2       3        TIP3     H2       HT       0.417000       1.00800           0
        10 W2       4        TIP3     OH2      OT      -0.834000       15.9994           0
        11 W2       4        TIP3     H1       HT       0.417000       1.00800           0
        12 W2       4        TIP3     H2       HT       0.417000       1.00800           0
        13 W2       5        TIP3     OH2      OT      -0.834000       15.9994           0
        14 W2       5        TIP3     H1       HT       0.417000       1.00800           0
        15 W2       5        TIP3     H2       HT       0.417000       1.00800           0
        16 W2       6        TIP3     OH2      OT      -0.834000       15.9994           0
        17 W2       6        TIP3     H1       HT       0.417000       1.00800           0
        18 W2       6        TIP3     H2       HT       0.417000       1.00800           0
        19 W2       7        TIP3     OH2      OT      -0.834000       15.9994           0
        20 W2       7        TIP3     H1       HT       0.417000       1.00800           0
        21 W2       7        TIP3     H2       HT       0.417000       1.00800           0
        22 W2       8        TIP3     OH2      OT      -0.834000       15.9994           0
        23 W2       8        TIP3     H1       HT       0.417000       1.00800           0
        24 W2       8        TIP3     H2       HT       0.417000       1.00800           0
        25 W2       9        TIP3     OH2      OT      -0.834000       15.9994           0
        26 W2       9        TIP3     H1       HT       0.417000       1.00800           0
        27 W2       9        TIP3     H2       HT       0.417000       1.00800           0
        28 W2       10       TIP3     OH2      OT      -0.834000       15.9994           0
        29 W2       10       TIP3     H1       HT       0.417000       1.00800           0
        30 W2       10       TIP3     H2       HT       0.417000       1.00800           0
        31 W2       11       TIP3     OH2      OT      -0.834000       15.9994           0
        32 W2       11       TIP3     H1       HT       0.417000       1.00800           0
        33 W2       11       TIP3     H2       HT       0.417000       1.00800           0
        34 W2       12       TIP3     OH2      OT      -0.834000       15.9994           0
        35 W2       12       TIP3     H1       HT       0.417000       1.00800           0
        36 W2       12       TIP3     H2       HT       0.417000       1.00800           0
        37 W2       13       TIP3     OH2      OT      -0.834000       15.9994           0
        38 W2       13       TIP3     H1       HT       0.417000       1.00800           0
        39 W2       13       TIP3     H2       HT       0.417000       1.00800           0
        40 W2       14       TIP3     OH2      OT      -0.834000       15.9994           0
        41 W2       14       TIP3     H1       HT       0.417000       1.00800           0
        42 W2       14       TIP3     H2       HT       0.417000       1.00800           0
        43 W2       15       TIP3     OH2      OT      -0.834000       15.9994           0
        44 W2       15       TIP3     H1       HT       0.417000       1.00800           0
        45 W2       15       TIP3     H2       HT       0.417000       1.00800           0
        46 W2       16       TIP3     OH2      OT      -0.834000       15.9994           0
        47 W2       16       TIP3     H1       HT       0.417000       1.00800           0
        48 W2       16       TIP3     H2       HT       0.417000       1.00800           0
        49 W2       17       TIP3     OH2      OT      -0.834000       15.9994           0
        50 W2       17       TIP3     H1       HT       0.417000       1.00800           0
        51 W2       17       TIP3     H2       HT       0.417000       1.00800           0
        52 W2       18       TIP3     OH2      OT      -0.834000       15.9994           0
        53 W2       18       TIP3     H1       HT       0.417000       1.00800           0
        54 W2       18       TIP3     H2       HT       0.417000       1.00800           0
        55 W2       19       TIP3     OH2      OT      -0.834000       15.9994           0
        56 W2       19       TIP3     H1       HT       0.417000       1.00800           0
        57 W2       19       TIP3     H2       HT       0.417000       1.00800           0
        58 W2       20       TIP3     OH2      OT      -0.834000       15.9994           0
        59 W2       20       TIP3     H1       HT       0.417000       1.00800           0
        60 W2       20       TIP3     H2       HT       0.417000       1.00800           0
        61 W2       21       TIP3     OH2      OT      -0.834000       15.9994           0
        62 W2       21       TIP3     H1       HT       0.417000       1.00800           0
        63 W2       21       TIP3     H2       HT       0.417000       1.00800           0
        64 W2       22       TIP3     OH2      OT      -0.834000       15.9994           0
        65 W2       22       TIP3     H1       HT       0.417000       1.00800           0
        66 W2       22       TIP3     H2       HT       0.417000       1.00800           0
        67 W2       23       TIP3     OH2      OT      -0.834000       15.9994           0
        68 W2       23       TIP3     H1       HT       0.417000       1.00800           0
        69 W2       23       TIP3     H2       HT       0.417000       1.00800           0
        70 W2       24       TIP3     OH2      OT      -0.834000       15.9994           0
        71 W2       24       TIP3     H1       HT       0.417000       1.00800           0
        72 W2       24       TIP3     H2       HT       0.417000       1.00800           0
        73 W2       25       TIP3     OH2      OT      -0.834000       15.9994           0
        74 W2       25       TIP3     H1       HT       0.417000       1.00800           0
        75 W2       25       TIP3     H2       HT       0.417000       1.00800           0
        76 W2       26       TIP3     OH2      OT      -0.834000       15.9994           0
        77 W2       26       TIP3     H1       HT       0.417000       1.00800           0
        78 W2       26       TIP3     H2       HT       0.417000       1.00800           0
        79 W2       27       TIP3     OH2      OT      -0.834000       15.9994           0
        80 W2       27       TIP3     H1       HT       0.417000       1.00800           0
        81 W2       27       TIP3     H2       HT       0.417000       1.00800           0
        82 W2       28       TIP3     OH2      OT      -0.834000       15.9994           0
        83 W2       28       TIP3     H1       HT       0.417000       1.00800           0
        84 W2       28       TIP3     H2       HT       0.417000       1.00800           0
        85 W2       29       TIP3     OH2      OT      -0.834000       15.9994           0
        86 W2       29       TIP3     H1       HT       0.417000       1.00800           0
        87 W2       29       TIP3     H2       HT       0.417000       1.00800           0
        88 W2       30       TIP3     OH2      OT      -0.834000       15.9994           0
        89 W2       30       TIP3     H1       HT       0.417000       1.00800           0
        90 W2       30       TIP3     H2       HT       0.417000       1.00800           0
        91 W2       31       TIP3     OH2      OT      -0.834000       15.9994           0
        92 W2       31       TIP3     H1       HT       0.417000       1.00800           0
        93 W2       31       TIP3     H2       HT       0.417000       1.00800           0
        94 W2       32       TIP3     OH2      OT      -0.834000       15.9994           0
        95 W2       32       TIP3     H1       HT       0.417000       1.00800           0
        96 W2       32       TIP3     H2       HT       0.417000       1.00800           0
        97 W2       33       TIP3     OH2      OT      -0.834000       15.9994           0
        98 W2       33       TIP3     H1       HT       0.417000       1.00800           0
        99 W2       33       TIP3     H2       HT       0.417000       1.00800           0
       100 W2       34       TIP3     OH2      OT      -0.834000       15.9994           0
       101 W2       34       TIP3     H1       HT       0.417000       1.00800           0
       102 W2       34       TIP3     H2       HT       0.417000       1.00800           0
       103 W2       35       TIP3     OH2      OT      -0.834000       15.9994           0
       104 W2       35       TIP3     H1       HT       0.417000       1.00800           0
       105 W2       35       TIP3     H2       HT       0.417000       1.00800           0
       106 W2       36       TIP3     OH2      OT      -0.834000       15.9994           0
       107 W2       36       TIP3     H1       HT       0.417000       1.00800           0
       108 W2       36       TIP3     H2       HT       0.417000       1.00800           0
       109 W2       37       TIP3     OH2      OT      -0.834000       15.9994           0
       110 W2       37       TIP3     H1       HT       0.417000       1.00800           0
       111 W2       37       TIP3     H2       HT       0.417000       1.00800           0
       112 W2       38       TIP3     OH2      OT      -0.834000       15.9994           0
       113 W2       38       TIP3     H1       HT       0.417000       1.00800           0
       114 W2       38       TIP3     H2       HT       0.417000       1.00800           0
       115 W2       39       TIP3     OH2      OT      -0.834000       15.9994           0
       116 W2       39       TIP3     H1       HT       0.417000       1.00800           0
       117 W2       39       TIP3     H2       HT       0.417000       1.00800           0
       118 W2       40       TIP3     OH2      OT      -0.834000       15.9994           0
       119 W2       40       TIP3     H1       HT       0.417000       1.00800           0
       120 W2       40       TIP3     H2       HT       0.417000       1.00800           0
       121 W2       41       TIP3     OH2      OT      -0.834000       15.9994           0
       122 W2       41       TIP3     H1       HT       0.417000       1.00800           0
       123 W2       41       TIP3     H2       HT       0.417000       1.00800           0
       124 W2       42       TIP3     OH2      OT      -0.834000       15.9994           0
       125 W2       42       TIP3     H1       HT       0.417000       1.00800           0
       126 W2       42       TIP3     H2       HT       0.417000       1.00800           0
       127 W2       43       TIP3     OH2      OT      -0.834000       15.9994           0
       128 W2       43       TIP3     H1       HT       0.417000       1.00800           0
       129 W2       43       TIP3     H2       HT       0.417000       1.00800           0
       130 W2       44       TIP3     OH2      OT      -0.834000       15.9994           0
       131 W2       44       TIP3     H1       HT       0.417000       1.00800           0
       132 W2       44       TIP3     H2       HT       0.417000       1.00800           0
       133 W2       45       TIP3     OH2      OT      -0.834000       15.9994           0
       134 W2       45       TIP3     H1       HT       0.417000       1.00800           0
       135 W2       45       TIP3     H2       HT       0.417000       1.00800           0
       136 W2       46       TIP3     OH2      OT      -0.834000       15.9994           0
       137 W2       46       TIP3     H1       HT       0.417000       1.00800           0
       138 W2       46       TIP3     H2       HT       0.417000       1.00800           0
       139 W2       47       TIP3     OH2      OT      -0.834000       15.9994           0
       140 W2       47       TIP3     H1       HT       0.417000       1.00800           0
       141 W2       47       TIP3     H2       HT       0.417000       1.00800           0
       142 W2       48       TIP3     OH2      OT      -0.834000       15.9994           0
       143 W2       48       TIP3     H1       HT       0.417000       1.00800           0
       144 W2       48       TIP3     H2       HT       0.417000       1.00800           0
       145 W2       49       TIP3     OH2      OT      -0.834000       15.9994           0
       146 W2       49       TIP3     H1       HT       0.417000       1.00800           0
       147 W2       49       TIP3     H2       HT       0.417000       1.00800           0
       148 W2       50       TIP3     OH2      OT      -0.834000       15.9994           0
       149 W2       50       TIP3     H1       HT       0.417000       1.00800           0
       150 W2       50       TIP3     H2       HT       0.417000       1.00800           0
       151 W2       51       TIP3     OH2      OT      -0.834000       15.9994           0
       152 W2       51       TIP3     H1       HT       0.417000       1.00800           0
       153 W2       51       TIP3     H2       HT       0.417000       1.00800           0
       154 W2       52       TIP3     OH2      OT      -0.834000       15.9994           0
       155 W2       52       TIP3     H1       HT       0.417000       1.00800           0
       156 W2       52       TIP3     H2       HT       0.417000       1.00800           0
       157 W2       53       TIP3     OH2      OT      -0.834000       15.9994           0
       158 W2       53       TIP3     H1       HT       0.417000       1.00800           0
       159 W2       53       TIP3     H2       HT       0.417000       1.00800           0
       160 W2       54       TIP3     OH2      OT      -0.834000       15.9994           0
       161 W2       54       TIP3     H1       HT       0.417000       1.00800           0
       162 W2       54       TIP3     H2       HT       0.417000       1.00800           0
       163 W2       55       TIP3     OH2      OT      -0.834000       15.9994           0
       164 W2       55       TIP3     H1       HT       0.417000       1.00800           0
       165 W2       55       TIP3     H2       HT       0.417000       1.00800           0
       166 W2       56       TIP3     OH2      OT      -0.834000       15.9994           0
       167 W2       56       TIP3     H1       HT       0.417000       1.00800           0
       168 W2       56       TIP3     H2       HT       0.417000       1.00800           0
       169 W2       57       TIP3     OH2      OT      -0.834000       15.9994           0
       170 W2       57       TIP3     H1       HT       0.417000       1.00800           0
       171 W2       57       TIP3     H2       HT       0.417000       1.00800           0
       172 W2       58       TIP3     OH2      OT      -0.834000       15.9994           0
       173 W2       58       TIP3     H1       HT       0.417000       1.00800           0
       174 W2       58       TIP3     H2       HT       0.417000       1.00800           0
       175 W2       59       TIP3     OH2      OT      -0.834000       15.9994           0
       176 W2       59       TIP3     H1       HT       0.417000       1.00800           0
       177 W2       59       TIP3     H2       HT       0.417000       1.00800           0
       178 W2       60       TIP3     OH2      OT      -0.834000       15.9994           0
       179 W2       60       TIP3     H1       HT       0.417000       1.00800           0
       180 W2       60       TIP3     H2       HT       0.417000       1.00800           0
       181 W2       61       TIP3     OH2      OT      -0.834000       15.9994           0
       182 W2       61       TIP3     H1       HT       0.417000       1.00800           0
       183 W2       61       TIP3     H2       HT       0.417000       1.00800           0
       184 W2       62       TIP3     OH2      OT      -0.834000       15.9994           0
       185 W2       62       TIP3     H1       HT       0.417000       1.00800           0
       186 W2       62       TIP3     H2       HT       0.417000       1.00800           0
       187 W2       63       TIP3     OH2      OT      -0.834000       15.9994           0
       188 W2       63       TIP3     H1       HT       0.417000       1.00800           0
       189 W2       63       TIP3     H2       HT       0.417000       1.00800           0
       190 W2       64       TIP3     OH2      OT      -0.834000       15.9994           0
       191 W2       64       TIP3     H1       HT       0.417000       1.00800           0
       192 W2       64       TIP3     H2       HT       0.417000       1.00800           0
       193 W2       65       TIP3     OH2      OT      -0.834000       15.9994           0
       194 W2       65       TIP3     H1       HT       0.417000       1.00800           0
       195 W2       65       TIP3     H2       HT       0.417000       1.00800           0
       196 W2       66       TIP3     OH2      OT      -0.834000       15.9994           0
       197 W2       66       TIP3     H1       HT       0.417000       1.00800           0
       198 W2       66       TIP3     H2       HT       0.417000       1.00800           0
       199 W2       67       TIP3     OH2      OT      -0.834000       15.9994           0
       200 W2       67       TIP3     H1       HT       0.417000       1.00800           0
       201 W2       67       TIP3     H2       HT       0.417000       1.00800           0
       202 W2       68       TIP3     OH2      OT      -0.834000       15.9994           0
       203 W2       68       TIP3     H1       HT       0.417000       1.00800           0
       204 W2       68       TIP3     H2       HT       0.417000       1.00800           0
       205 W2       69       TIP3     OH2      OT      -0.834000       15.9994           0
       206 W2       69       TIP3     H1       HT       0.417000       1.00800           0
       207 W2       69       TIP3     H2       HT       0.417000       1.00800           0
       208 W2       70       TIP3     OH2      OT      -0.834000       15.9994           0
       209 W2       70       TIP3     H1       HT       0.417000       1.00800           0
       210 W2       70       TIP3     H2       HT       0.417000       1.00800           0
       211 W2       71       TIP3     OH2      OT      -0.834000       15.9994           0
       212 W2       71       TIP3     H1       HT       0.417000       1.00800           0
       213 W2       71       TIP3     H2       HT       0.417000       1.00800           0
       214 W2       72       TIP3     OH2      OT      -0.834000       15.9994           0
       215 W2       72       TIP3     H1       HT       0.417000       1.00800           0
       216 W2       72       TIP3     H2       HT       0.417000       1.00800           0
       217 W2       73       TIP3     OH2      OT      -0.834000       15.9994           0
       218 W2       73       TIP3     H1       HT       0.417000       1.00800           0
       219 W2       73       TIP3     H2       HT       0.417000       1.00800           0
       220 W2       74       TIP3     OH2      OT      -0.834000       15.9994           0
       221 W2       74       TIP3     H1       HT       0.417000       1.00800           0
       222 W2       74       TIP3     H2       HT       0.417000       1.00800           0
       223 W2       75       TIP3     OH2      OT      -0.834000       15.9994           0
       224 W2       75       TIP3     H1       HT       0.417000       1.00800           0
       225 W2       75       TIP3     H2       HT       0.417000       1.00800           0
       226 W2       76       TIP3     OH2      OT      -0.834000       15.9994           0
       227 W2       76       TIP3     H1       HT       0.417000       1.00800           0
       228 W2       76       TIP3     H2       HT       0.417000       1.00800           0
       229 W2       77       TIP3     OH2      OT      -0.834000       15.9994           0
       230 W2       77       TIP3     H1       HT       0.417000       1.00800           0
       231 W2       77       TIP3     H2       HT       0.417000       1.00800           0
       232 W2       78       TIP3     OH2      OT      -0.834000       15.9994           0
       233 W2       78       TIP3     H1       HT       0.417000       1.00800           0
       234 W2       78       TIP3     H2       HT       0.417000       1.00800           0
       235 W2       79       TIP3     OH2      OT      -0.834000       15.9994           0
       236 W2       79       TIP3     H1       HT       0.417000       1.00800           0
       237 W2       79       TIP3     H2       HT       0.417000       1.00800           0
       238 W2       80       TIP3     OH2      OT      -0.834000       15.9994           0
       239 W2       80       TIP3     H1       HT       0.417000       1.00800           0
       240 W2       80       TIP3     H2       HT       0.417000       1.00800           0
       241 W2       81       TIP3     OH2      OT      -0.834000       15.9994           0
       242 W2       81       TIP3     H1       HT       0.417000       1.00800           0
       243 W2       81       TIP3     H2       HT       0.417000       1.00800           0
       244 W2       82       TIP3     OH2      OT      -0.834000       15.9994           0
       245 W2       82       TIP3     H1       HT       0.417000       1.00800           0
       246 W2       82       TIP3     H2       HT       0.417000       1.00800           0
       247 W2       83       TIP3     OH2      OT      -0.834000       15.9994           0
       248 W2       83       TIP3     H1       HT       0.417000       1.00800           0
       249 W2       83       TIP3     H2       HT       0.417000       1.00800           0
       250 W2       84       TIP3     OH2      OT      -0.834000       15.9994           0
       251 W2       84       TIP3     H1       HT       0.417000       1.00800           0
       252 W2       84       TIP3     H2       HT       0.417000       1.00800           0
       253 W2       85       TIP3     OH2      OT      -0.834000       15.9994           0
       254 W2       85       TIP3     H1       HT       0.417000       1.00800           0
       255 W2       85       TIP3     H2       HT       0.417000       1.00800           0
       256 W2       86       TIP3     OH2      OT      -0.834000       15.9994           0
       257 W2       86       TIP3     H1       HT       0.417000       1.00800           0
       258 W2       86       TIP3     H2       HT       0.417000       1.00800           0
       259 W2       87       TIP3     OH2      OT      -0.834000       15.9994           0
       260 W2       87       TIP3     H1       HT       0.417000       1.00800           0
       261 W2       87       TIP3     H2       HT       0.417000       1.00800           0
       262 W2       88       TIP3     OH2      OT      -0.834000       15.9994           0
       263 W2       88       TIP3     H1       HT       0.417000       1.00800           0
       264 W2       88       TIP3     H2       HT       0.417000       1.00800           0
       265 W2       89       TIP3     OH2      OT      -0.834000       15.9994           0
       266 W2       89       TIP3     H1       HT       0.417000       1.00800           0
       267 W2       89       TIP3     H2       HT       0.417000       1.00800           0
       268 W2       90       TIP3     OH2      OT      -0.834000       15.9994           0
       269 W2       90       TIP3     H1       HT       0.417000       1.00800           0
       270 W2       90       TIP3     H2       HT       0.417000       1.00800           0
       271 W2       91       TIP3     OH2      OT      -0.834000       15.9994           0
       272 W2       91       TIP3     H1       HT       0.417000       1.00800           0
       273 W2       91       TIP3     H2       HT       0.417000       1.00800           0
       274 W2       92       TIP3     OH2      OT      -0.834000       15.9994           0
       275 W2       92       TIP3     H1       HT       0.417000       1.00800           0
       276 W2       92       TIP3     H2       HT       0.417000       1.00800           0
       277 W2       93       TIP3     OH2      OT      -0.834000       15.9994           0
       278 W2       93       TIP3     H1       HT       0.417000       1.00800           0
       279 W2       93       TIP3     H2       HT       0.417000       1.00800           0
       280 W2       94       TIP3     OH2      OT      -0.834000       15.9994           0
       281 W2       94       TIP3     H1       HT       0.417000       1.00800           0
       282 W2       94       TIP3     H2       HT       0.417000       1.00800           0
       283 W2       95       TIP3     OH2      OT      -0.834000       15.9994           0
       284 W2       95       TIP3     H1       HT       0.417000       1.00800           0
       285 W2       95       TIP3     H2       HT       0.417000       1.00800           0
       286 W2       96       TIP3     OH2      OT      -0.834000       15.9994           0
       287 W2       96       TIP3     H1       HT       0.417000       1.00800           0
       288 W2       96       TIP3     H2       HT       0.417000       1.00800           0
       289 W2       97       TIP3     OH2      OT      -0.834000       15.9994           0
       290 W2       97       TIP3     H1       HT       0.417000       1.00800           0
       291 W2       97       TIP3     H2       HT       0.417000       1.00800           0
       292 W2       98       TIP3     OH2      OT      -0.834000       15.9994           0
       293 W2       98       TIP3     H1       HT       0.417000       1.00800           0
       294 W2       98       TIP3     H2       HT       0.417000       1.00800           0
       295 W2       99       TIP3     OH2      OT      -0.834000       15.9994           0
       296 W2       99       TIP3     H1       HT       0.417000       1.00800           0
       297 W2       99       TIP3     H2       HT       0.417000       1.00800           0
       298 W2       100      TIP3     OH2      OT      -0.834000       15.9994           0
       299 W2       100      TIP3     H1       HT       0.417000       1.00800           0
       300 W2       100      TIP3     H2       HT       0.417000       1.00800           0
       301 W2       101      TIP3     OH2      OT      -0.834000       15.9994           0
       302 W2       101      TIP3     H1       HT       0.417000       1.00800           0
       303 W2       101      TIP3     H2       HT       0.417000       1.00800           0
       304 W2       102      TIP3     OH2      OT      -0.834000       15.9994           0
       305 W2       102      TIP3     H1       HT       0.417000       1.00800           0
       306 W2       102      TIP3     H2       HT       0.417000       1.00800           0
       307 W2       103      TIP3     OH2      OT      -0.834000       15.9994           0
       308 W2       103      TIP3     H1       HT       0.417000       1.00800           0
       309 W2       103      TIP3     H2       HT       0.417000       1.00800           0
       310 W2       104      TIP3     OH2      OT      -0.834000       15.9994           0
       311 W2       104      TIP3     H1       HT       0.417000       1.00800           0
       312 W2       104      TIP3     H2       HT       0.417000       1.00800           0
       313 W2       105      TIP3     OH2      OT      -0.834000       15.9994           0
       314 W2       105      TIP3     H1       HT       0.417000       1.00800           0
       315 W2       105      TIP3     H2       HT       0.417000       1.00800           0
       316 W2       106      TIP3     OH2      OT      -0.834000       15.9994           0
       317 W2       106      TIP3     H1       HT       0.417000       1.00800           0
       318 W2       106      TIP3     H2       HT       0.417000       1.00800           0
       319 W2       107      TIP3     OH2      OT      -0.834000       15.9994           0
       320 W2       107      TIP3     H1       HT       0.417000       1.00800           0
       321 W2       107      TIP3     H2       HT       0.417000       1.00800           0
       322 W2       108      TIP3     OH2      OT      -0.834000       15.9994           0
       323 W2       108      TIP3     H1       HT       0.417000       1.00800           0
       324 W2       108      TIP3     H2       HT       0.417000       1.00800           0
       325 W2       109      TIP3     OH2      OT      -0.834000       15.9994           0
       326 W2       109      TIP3     H1       HT       0.417000       1.00800           0
       327 W2       109      TIP3     H2       HT       0.417000       1.00800           0
       328 W2       110      TIP3     OH2      OT      -0.834000       15.9994           0
       329 W2       110      TIP3     H1       HT       0.417000       1.00800           0
       330 W2       110      TIP3     H2       HT       0.417000       1.00800           0
       331 W2       111      TIP3     OH2      OT      -0.834000       15.9994           0
       332 W2       111      TIP3     H1       HT       0.417000       1.00800           0
       333 W2       111      TIP3     H2       HT       0.417000       1.00800           0
       334 W2       112      TIP3     OH2      OT      -0.834000       15.9994           0
       335 W2       112      TIP3     H1       HT       0.417000       1.00800           0
       336 W2       112      TIP3     H2       HT       0.417000       1.00800           0
       337 W2       113      TIP3     OH2      OT      -0.834000       15.9994           0
       338 W2       113      TIP3     H1       HT       0.417000       1.00800           0
       339 W2       113      TIP3     H2       HT       0.417000       1.00800           0
       340 W2       114      TIP3     OH2      OT      -0.834000       15.9994           0
       341 W2       114      TIP3     H1       HT       0.417000       1.00800           0
       342 W2       114      TIP3     H2       HT       0.417000       1.00800           0
       343 W2       115      TIP3     OH2      OT      -0.834000       15.9994           0
       344 W2       115      TIP3     H1       HT       0.417000       1.00800           0
       345 W2       115      TIP3     H2       HT       0.417000       1.00800           0
       346 W2       116      TIP3     OH2      OT      -0.834000       15.9994           0
       347 W2       116      TIP3     H1       HT       0.417000       1.00800           0
       348 W2       116      TIP3     H2       HT       0.417000       1.00800           0
       349 W2       117      TIP3     OH2      OT      -0.834000       15.9994           0
       350 W2       117      TIP3     H1       HT       0.417000       1.00800           0
       351 W2       117      TIP3     H2       HT       0.417000       1.00800           0
       352 W2       118      TIP3     OH2      OT      -0.834000       15.9994           0
       353 W2       118      TIP3     H1       HT       0.417000       1.00800           0
       354 W2       118      TIP3     H2       HT       0.417000       1.00800           0
       355 W2       119      TIP3     OH2      OT      -0.834000       15.9994           0
       356 W2       119      TIP3     H1       HT       0.417000       1.00800           0
       357 W2       119      TIP3     H2       HT       0.417000       1.00800           0
       358 W2       120      TIP3     OH2      OT      -0.834000       15.9994           0
       359 W2       120      TIP3     H1       HT       0.417000       1.00800           0
       360 W2       120      TIP3     H2       HT       0.417000       1.00800           0
       361 W2       121      TIP3     OH2      OT      -0.834000       15.9994           0
       362 W2       121      TIP3     H1       HT       0.417000       1.00800           0
       363 W2       121      TIP3     H2       HT       0.417000       1.00800           0
       364 W2       122      TIP3     OH2      OT      -0.834000       15.9994           0
       365 W2       122      TIP3     H1       HT       0.417000       1.00800           0
       366 W2       122      TIP3     H2       HT       0.417000       1.00800           0
       367 W2       123      TIP3     OH2      OT      -0.834000       15.9994           0
       368 W2       123      TIP3     H1       HT       0.417000       1.00800           0
       369 W2       123      TIP3     H2       HT       0.417000       1.00800           0
       370 W2       124      TIP3     OH2      OT      -0.834000       15.9994           0
       371 W2       124      TIP3     H1       HT       0.417000       1.00800           0
       372 W2       124      TIP3     H2       HT       0.417000       1.00800           0
       373 W2       125      TIP3     OH2      OT      -0.834000       15.9994           0
       374 W2       125      TIP3     H1       HT       0.417000       1.00800           0
       375 W2       125      TIP3     H2       HT       0.417000       1.00800           0
       376 W2       126      TIP3     OH2      OT      -0.834000       15.9994           0
       377 W2       126      TIP3     H1       HT       0.417000       1.00800           0
       378 W2       126      TIP3     H2       HT       0.417000       1.00800           0
       379 W2       127      TIP3     OH2      OT      -0.834000       15.9994           0
       380 W2       127      TIP3     H1       HT       0.417000       1.00800           0
       381 W2       127      TIP3     H2       HT       0.417000       1.00800           0
       382 W2       128      TIP3     OH2      OT      -0.834000       15.9994           0
       383 W2       128      TIP3     H1       HT       0.417000       1.00800           0
       384 W2       128      TIP3     H2       HT       0.417000       1.00800           0
       385 W2       129      TIP3     OH2      OT      -0.834000       15.9994           0
       386 W2       129      TIP3     H1       HT       0.417000       1.00800           0
       387 W2       129      TIP3     H2       HT       0.417000       1.00800           0
       388 W2       130      TIP3     OH2      OT      -0.834000       15.9994           0
       389 W2       130      TIP3     H1       HT       0.417000       1.00800           0
       390 W2       130      TIP3     H2       HT       0.417000       1.00800           0
       391 W2       131      TIP3     OH2      OT      -0.834000       15.9994           0
       392 W2       131      TIP3     H1       HT       0.417000       1.00800           0
       393 W2       131      TIP3     H2       HT       0.417000       1.00800           0
       394 W2       132      TIP3     OH2      OT      -0.834000       15.9994           0
       395 W2       132      TIP3     H1       HT       0.417000       1.00800           0
       396 W2       132      TIP3     H2       HT       0.417000       1.00800           0
       397 W2       133      TIP3     OH2      OT      -0.834000       15.9994           0
       398 W2       133      TIP3     H1       HT       0.417000       1.00800           0
       399 W2       133      TIP3     H2       HT       0.417000       1.00800           0
       400 W2       134      TIP3     OH2      OT      -0.834000       15.9994           0
       401 W2       134      TIP3     H1       HT       0.417000       1.00800           0
       402 W2       134      TIP3     H2       HT       0.417000       1.00800           0
       403 W2       135      TIP3     OH2      OT      -0.834000       15.9994           0
       404 W2       135      TIP3     H1       HT       0.417000       1.00800           0
       405 W2       135      TIP3     H2       HT       0.417000       1.00800           0
       406 W2       136      TIP3     OH2      OT      -0.834000       15.9994           0
       407 W2       136      TIP3     H1       HT       0.417000       1.00800           0
       408 W2       136      TIP3     H2       HT       0.417000       1.00800           0
       409 W2       137      TIP3     OH2      OT      -0.834000       15.9994           0
       410 W2       137      TIP3     H1       HT       0.417000       1.00800           0
       411 W2       137      TIP3     H2       HT       0.417000       1.00800           0
       412 W2       138      TIP3     OH2      OT      -0.834000       15.9994           0
       413 W2       138      TIP3     H1       HT       0.417000       1.00800           0
       414 W2       138      TIP3     H2       HT       0.417000       1.00800           0
       415 W2       139      TIP3     OH2      OT      -0.834000       15.9994           0
       416 W2       139      TIP3     H1       HT       0.417000       1.00800           0
       417 W2       139      TIP3     H2       HT       0.417000       1.00800           0
       418 W2       140      TIP3     OH2      OT      -0.834000       15.9994           0
       419 W2       140      TIP3     H1       HT       0.417000       1.00800           0
       420 W2       140      TIP3     H2       HT       0.417000       1.00800           0
       421 W2       141      TIP3     OH2      OT      -0.834000       15.9994           0
       422 W2       141      TIP3     H1       HT       0.417000       1.00800           0
       423 W2       141      TIP3     H2       HT       0.417000       1.00800           0
       424 W2       142      TIP3     OH2      OT      -0.834000       15.9994           0
       425 W2       142      TIP3     H1       HT       0.417000       1.00800           0
       426 W2       142      TIP3     H2       HT       0.417000       1.00800           0
       427 W2       143      TIP3     OH2      OT      -0.834000       15.9994           0
       428 W2       143      TIP3     H1       HT       0.417000       1.00800           0
       429 W2       143      TIP3     H2       HT       0.417000       1.00800           0
       430 W2       144      TIP3     OH2      OT      -0.834000       15.9994           0
       431 W2       144      TIP3     H1       HT       0.417000       1.00800           0
       432 W2       144      TIP3     H2       HT       0.417000       1.00800           0
       433 W2       145      TIP3     OH2      OT      -0.834000       15.9994           0
       434 W2       145      TIP3     H1       HT       0.417000       1.00800           0
       435 W2       145      TIP3     H2       HT       0.417000       1.00800           0
       436 W2       146      TIP3     OH2      OT      -0.834000       15.9994           0
       437 W2       146      TIP3     H1       HT       0.417000       1.00800           0
       438 W2       146      TIP3     H2       HT       0.417000       1.00800           0
       439 W2       147      TIP3     OH2      OT      -0.834000       15.9994           0
       440 W2       147      TIP3     H1       HT       0.417000       1.00800           0
       441 W2       147      TIP3     H2       HT       0.417000       1.00800           0
       442 W2       148      TIP3     OH2      OT      -0.834000       15.9994           0
       443 W2       148      TIP3     H1       HT       0.417000       1.00800           0
       444 W2       148      TIP3     H2       HT       0.417000       1.00800           0
       445 W2       149      TIP3     OH2      OT      -0.834000       15.9994           0
       446 W2       149      TIP3     H1       HT       0.417000       1.00800           0
       447 W2       149      TIP3     H2       HT       0.417000       1.00800           0
       448 W2       150      TIP3     OH2      OT      -0.834000       15.9994           0
       449 W2       150      TIP3     H1       HT       0.417000       1.00800           0
       450 W2       150      TIP3     H2       HT       0.417000       1.00800           0
       451 W2       151      TIP3     OH2      OT      -0.834000       15.9994           0
       452 W2       151      TIP3     H1       HT       0.417000       1.00800           0
       453 W2       151      TIP3     H2       HT       0.417000       1.00800           0
       454 W2       152      TIP3     OH2      OT      -0.834000       15.9994           0
       455 W2       152      TIP3     H1       HT       0.417000       1.00800           0
       456 W2       152      TIP3     H2       HT       0.417000       1.00800           0
       457 W2       153      TIP3     OH2      OT      -0.834000       15.9994           0
       458 W2       153      TIP3     H1       HT       0.417000       1.00800           0
       459 W2       153      TIP3     H2       HT       0.417000       1.00800           0
       460 W2       154      TIP3     OH2      OT      -0.834000       15.9994           0
       461 W2       154      TIP3     H1       HT       0.417000       1.00800           0
       462 W2       154      TIP3     H2       HT       0.417000       1.00800           0
       463 W2       155      TIP3     OH2      OT      -0.834000       15.9994           0
       464 W2       155      TIP3     H1       HT       0.417000       1.00800           0
       465 W2       155      TIP3     H2       HT       0.417000       1.00800           0
       466 W2       156      TIP3     OH2      OT      -0.834000       15.9994           0
       467 W2       156      TIP3     H1       HT       0.417000       1.00800           0
       468 W2       156      TIP3     H2       HT       0.417000       1.00800           0
       469 W2       157      TIP3     OH2      OT      -0.834000       15.9994           0
       470 W2       157      TIP3     H1       HT       0.417000       1.00800           0
       471 W2       157      TIP3     H2       HT       0.417000       1.00800           0
       472 W2       158      TIP3     OH2      OT      -0.834000       15.9994           0
       473 W2       158      TIP3     H1       HT       0.417000       1.00800           0
       474 W2       158      TIP3     H2       HT       0.417000       1.00800           0
       475 W2       159      TIP3     OH2      OT      -0.834000       15.9994           0
       476 W2       159      TIP3     H1       HT       0.417000       1.00800           0
       477 W2       159      TIP3     H2       HT       0.417000       1.00800           0
       478 W2       160      TIP3     OH2      OT      -0.834000       15.9994           0
       479 W2       160      TIP3     H1       HT       0.417000       1.00800           0
       480 W2       160      TIP3     H2       HT       0.417000       1.00800           0
       481 W2       161      TIP3     OH2      OT      -0.834000       15.9994           0
       482 W2       161      TIP3     H1       HT       0.417000       1.00800           0
       483 W2       161      TIP3     H2       HT       0.417000       1.00800           0
       484 W2       162      TIP3     OH2      OT      -0.834000       15.9994           0
       485 W2       162      TIP3     H1       HT       0.417000       1.00800           0
       486 W2       162      TIP3     H2       HT       0.417000       1.00800           0
       487 W2       163      TIP3     OH2      OT      -0.834000       15.9994           0
       488 W2       163      TIP3     H1       HT       0.417000       1.00800           0
       489 W2       163      TIP3     H2       HT       0.417000       1.00800           0
       490 W2       164      TIP3     OH2      OT      -0.834000       15.9994           0
       491 W2       164      TIP3     H1       HT       0.417000       1.00800           0
       492 W2       164      TIP3     H2       HT       0.417000       1.00800           0
       493 W2       165      TIP3     OH2      OT      -0.834000       15.9994           0
       494 W2       165      TIP3     H1       HT       0.417000       1.00800           0
       495 W2       165      TIP3     H2       HT       0.417000       1.00800           0
       496 W2       166      TIP3     OH2      OT      -0.834000       15.9994           0
       497 W2       166      TIP3     H1       HT       0.417000       1.00800           0
       498 W2       166      TIP3     H2       HT       0.417000       1.00800           0
       499 W2       167      TIP3     OH2      OT      -0.834000       15.9994           0
       500 W2       167      TIP3     H1       HT       0.417000       1.00800           0
       501 W2       167      TIP3     H2       HT       0.417000       1.00800           0
       502 W2       168      TIP3     OH2      OT      -0.834000       15.9994           0
       503 W2       168      TIP3     H1       HT       0.417000       1.00800           0
       504 W2       168      TIP3     H2       HT       0.417000       1.00800           0
       505 W2       169      TIP3     OH2      OT      -0.834000       15.9994           0
       506 W2       169      TIP3     H1       HT       0.417000       1.00800           0
       507 W2       169      TIP3     H2       HT       0.417000       1.00800           0
       508 W2       170      TIP3     OH2      OT      -0.834000       15.9994           0
       509 W2       170      TIP3     H1       HT       0.417000       1.00800           0
       510 W2       170      TIP3     H2       HT       0.417000       1.00800           0
       511 W2       171      TIP3     OH2      OT      -0.834000       15.9994           0
       512 W2       171      TIP3     H1       HT       0.417000       1.00800           0
       513 W2       171      TIP3     H2       HT       0.417000       1.00800           0
       514 W2       172      TIP3     OH2      OT      -0.834000       15.9994           0
       515 W2       172      TIP3     H1       HT       0.417000       1.00800           0
       516 W2       172      TIP3     H2       HT       0.417000       1.00800           0
       517 W2       173      TIP3     OH2      OT      -0.834000       15.9994           0
       518 W2       173      TIP3     H1       HT       0.417000       1.00800           0
       519 W2       173      TIP3     H2       HT       0.417000       1.00800           0
       520 W2       174      TIP3     OH2      OT      -0.834000       15.9994           0
       521 W2       174      TIP3     H1       HT       0.417000       1.00800           0
       522 W2       174      TIP3     H2       HT       0.417000       1.00800           0
       523 W2       175      TIP3     OH2      OT      -0.834000       15.9994           0
       524 W2       175      TIP3     H1       HT       0.417000       1.00800           0
       525 W2       175      TIP3     H2       HT       0.417000       1.00800           0
       526 W2       176      TIP3     OH2      OT      -0.834000       15.9994           0
       527 W2       176      TIP3     H1       HT       0.417000       1.00800           0
       528 W2       176      TIP3     H2       HT       0.417000       1.00800           0
       529 W2       177      TIP3     OH2      OT      -0.834000       15.9994           0
       530 W2       177      TIP3     H1       HT       0.417000       1.00800           0
       531 W2       177      TIP3     H2       HT       0.417000       1.00800           0
       532 W2       178      TIP3     OH2      OT      -0.834000       15.9994           0
       533 W2       178      TIP3     H1       HT       0.417000       1.00800           0
       534 W2       178      TIP3     H2       HT       0.417000       1.00800           0
       535 W2       179      TIP3     OH2      OT      -0.834000       15.9994           0
       536 W2       179      TIP3     H1       HT       0.417000       1.00800           0
       537 W2       179      TIP3     H2       HT       0.417000       1.00800           0
       538 W2       180      TIP3     OH2      OT      -0.834000       15.9994           0
       539 W2       180      TIP3     H1       HT       0.417000       1.00800           0
       540 W2       180      TIP3     H2       HT       0.417000       1.00800           0
       541 W2       181      TIP3     OH2      OT      -0.834000       15.9994           0
       542 W2       181      TIP3     H1       HT       0.417000       1.00800           0
       543 W2       181      TIP3     H2       HT       0.417000       1.00800           0
       544 W2       182      TIP3     OH2      OT      -0.834000       15.9994           0
       545 W2       182      TIP3     H1       HT       0.417000       1.00800           0
       546 W2       182      TIP3     H2       HT       0.417000       1.00800           0
       547 W2       183      TIP3     OH2      OT      -0.834000       15.9994           0
       548 W2       183      TIP3     H1       HT       0.417000       1.00800           0
       549 W2       183      TIP3     H2       HT       0.417000       1.00800           0
       550 W2       184      TIP3     OH2      OT      -0.834000       15.9994           0
       551 W2       184      TIP3     H1       HT       0.417000       1.00800           0
       552 W2       184      TIP3     H2       HT       0.417000       1.00800           0
       553 W2       185      TIP3     OH2      OT      -0.834000       15.9994           0
       554 W2       185      TIP3     H1       HT       0.417000       1.00800           0
       555 W2       185      TIP3     H2       HT       0.417000       1.00800           0
       556 W2       186      TIP3     OH2      OT      -0.834000       15.9994           0
       557 W2       186      TIP3     H1       HT       0.417000       1.00800           0
       558 W2       186      TIP3     H2       HT       0.417000       1.00800           0
       559 W2       187      TIP3     OH2      OT      -0.834000       15.9994           0
       560 W2       187      TIP3     H1       HT       0.417000       1.00800           0
       561 W2       187      TIP3     H2       HT       0.417000       1.00800           0
       562 W2       188      TIP3     OH2      OT      -0.834000       15.9994           0
       563 W2       188      TIP3     H1       HT       0.417000       1.00800           0
       564 W2       188      TIP3     H2       HT       0.417000       1.00800           0
       565 W2       189      TIP3     OH2      OT      -0.834000       15.9994           0
       566 W2       189      TIP3     H1       HT       0.417000       1.00800           0
       567 W2       189      TIP3     H2       HT       0.417000       1.00800           0
       568 W2       190      TIP3     OH2      OT      -0.834000       15.9994           0
       569 W2       190      TIP3     H1       HT       0.417000       1.00800           0
       570 W2       190      TIP3     H2       HT       0.417000       1.00800           0
       571 W2       191      TIP3     OH2      OT      -0.834000       15.9994           0
       572 W2       191      TIP3     H1       HT       0.417000       1.00800           0
       573 W2       191      TIP3     H2       HT       0.417000       1.00800           0
       574 W2       192      TIP3     OH2      OT      -0.834000       15.9994           0
       575 W2       192      TIP3     H1       HT       0.417000       1.00800           0
       576 W2       192      TIP3     H2       HT       0.417000       1.00800           0
       577 W2       193      TIP3     OH2      OT      -0.834000       15.9994           0
       578 W2       193      TIP3     H1       HT       0.417000       1.00800           0
       579 W2       193      TIP3     H2       HT       0.417000       1.00800           0
       580 W2       194      TIP3     OH2      OT      -0.834000       15.9994           0
       581 W2       194      TIP3     H1       HT       0.417000       1.00800           0
       582 W2       194      TIP3     H2       HT       0.417000       1.00800           0
       583 W2       195      TIP3     OH2      OT      -0.834000       15.9994           0
       584 W2       195      TIP3     H1       HT       0.417000       1.00800           0
       585 W2       195      TIP3     H2       HT       0.417000       1.00800           0
       586 W2       196      TIP3     OH2      OT      -0.834000       15.9994           0
       587 W2       196      TIP3     H1       HT       0.417000       1.00800           0
       588 W2       196      TIP3     H2       HT       0.417000       1.00800           0
       589 W2       197      TIP3     OH2      OT      -0.834000       15.9994           0
       590 W2       197      TIP3     H1       HT       0.417000       1.00800           0
       591 W2       197      TIP3     H2       HT       0.417000       1.00800           0
       592 W2       198      TIP3     OH2      OT      -0.834000       15.9994           0
       593 W2       198      TIP3     H1       HT       0.417000       1.00800           0
       594 W2       198      TIP3     H2       HT       0.417000       1.00800           0
       595 W2       199      TIP3     OH2      OT      -0.834000       15.9994           0
       596 W2       199      TIP3     H1       HT       0.417000       1.00800           0
       597 W2       199      TIP3     H2       HT       0.417000       1.00800           0
       598 W2       200      TIP3     OH2      OT      -0.834000       15.9994           0
       599 W2       200      TIP3     H1       HT       0.417000       1.00800           0
       600 W2       200      TIP3     H2       HT       0.417000       1.00800           0
       601 W2       201      TIP3     OH2      OT      -0.834000       15.9994           0
       602 W2       201      TIP3     H1       HT       0.417000       1.00800           0
       603 W2       201      TIP3     H2       HT       0.417000       1.00800           0
       604 W2       202      TIP3     OH2      OT      -0.834000       15.9994           0
       605 W2       202      TIP3     H1       HT       0.417000       1.00800           0
       606 W2       202      TIP3     H2       HT       0.417000       1.00800           0
       607 W2       203      TIP3     OH2      OT      -0.834000       15.9994           0
       608 W2       203      TIP3     H1       HT       0.417000       1.00800           0
       609 W2       203      TIP3     H2       HT       0.417000       1.00800           0
       610 W2       204      TIP3     OH2      OT      -0.834000       15.9994           0
       611 W2       204      TIP3     H1       HT       0.417000       1.00800           0
       612 W2       204      TIP3     H2       HT       0.417000       1.00800           0
       613 W2       205      TIP3     OH2      OT      -0.834000       15.9994           0
       614 W2       205      TIP3     H1       HT       0.417000       1.00800           0
       615 W2       205      TIP3     H2       HT       0.417000       1.00800           0
       616 W2       206      TIP3     OH2      OT      -0.834000       15.9994           0
       617 W2       206      TIP3     H1       HT       0.417000       1.00800           0
       618 W2       206      TIP3     H2       HT       0.417000       1.00800           0
       619 W2       207      TIP3     OH2      OT      -0.834000       15.9994           0
       620 W2       207      TIP3     H1       HT       0.417000       1.00800           0
       621 W2       207      TIP3     H2       HT       0.417000       1.00800           0
       622 W2       208      TIP3     OH2      OT      -0.834000       15.9994           0
       623 W2       208      TIP3     H1       HT       0.417000       1.00800           0
       624 W2       208      TIP3     H2       HT       0.417000       1.00800           0
       625 W2       209      TIP3     OH2      OT      -0.834000       15.9994           0
       626 W2       209      TIP3     H1       HT       0.417000       1.00800           0
       627 W2       209      TIP3     H2       HT       0.417000       1.00800           0
       628 W2       210      TIP3     OH2      OT      -0.834000       15.9994           0
       629 W2       210      TIP3     H1       HT       0.417000       1.00800           0
       630 W2       210      TIP3     H2       HT       0.417000       1.00800           0
       631 W2       211      TIP3     OH2      OT      -0.834000       15.9994           0
       632 W2       211      TIP3     H1       HT       0.417000       1.00800           0
       633 W2       211      TIP3     H2       HT       0.417000       1.00800           0
       634 W2       212      TIP3     OH2      OT      -0.834000       15.9994           0
       635 W2       212      TIP3     H1       HT       0.417000       1.00800           0
       636 W2       212      TIP3     H2       HT       0.417000       1.00800           0
       637 W2       213      TIP3     OH2      OT      -0.834000       15.9994           0
       638 W2       213      TIP3     H1       HT       0.417000       1.00800           0
       639 W2       213      TIP3     H2       HT       0.417000       1.00800           0
       640 W2       214      TIP3     OH2      OT      -0.834000       15.9994           0
       641 W2       214      TIP3     H1       HT       0.417000       1.00800           0
       642 W2       214      TIP3     H2       HT       0.417000       1.00800           0
       643 W2       215      TIP3     OH2      OT      -0.834000       15.9994           0
       644 W2       215      TIP3     H1       HT       0.417000       1.00800           0
       645 W2       215      TIP3     H2       HT       0.417000       1.00800           0
       646 W2       216      TIP3     OH2      OT      -0.834000       15.9994           0
       647 W2       216      TIP3     H1       HT       0.417000       1.00800           0
       648 W2       216      TIP3     H2       HT       0.417000       1.00800           0
       649 W2       217      TIP3     OH2      OT      -0.834000       15.9994           0
       650 W2       217      TIP3     H1       HT       0.417000       1.00800           0
       651 W2       217      TIP3     H2       HT       0.417000       1.00800           0
       652 W2       218      TIP3     OH2      OT      -0.834000       15.9994           0
       653 W2       218      TIP3     H1       HT       0.417000       1.00800           0
       654 W2       218      TIP3     H2       HT       0.417000       1.00800           0
       655 W2       219      TIP3     OH2      OT      -0.834000       15.9994           0
       656 W2       219      TIP3     H1       HT       0.417000       1.00800           0
       657 W2       219      TIP3     H2       HT       0.417000       1.00800           0
       658 W2       220      TIP3     OH2      OT      -0.834000       15.9994           0
       659 W2       220      TIP3     H1       HT       0.417000       1.00800           0
       660 W2       220      TIP3     H2       HT       0.417000       1.00800           0
       661 W2       221      TIP3     OH2      OT      -0.834000       15.9994           0
       662 W2       221      TIP3     H1       HT       0.417000       1.00800           0
       663 W2       221      TIP3     H2       HT       0.417000       1.00800           0
       664 W2       222      TIP3     OH2      OT      -0.834000       15.9994           0
       665 W2       222      TIP3     H1       HT       0.417000       1.00800           0
       666 W2       222      TIP3     H2       HT       0.417000       1.00800           0
       667 W2       223      TIP3     OH2      OT      -0.834000       15.9994           0
       668 W2       223      TIP3     H1       HT       0.417000       1.00800           0
       669 W2       223      TIP3     H2       HT       0.417000       1.00800           0
       670 W2       224      TIP3     OH2      OT      -0.834000       15.9994           0
       671 W2       224      TIP3     H1       HT       0.417000       1.00800           0
       672 W2       224      TIP3     H2       HT       0.417000       1.00800           0
       673 W2       225      TIP3     OH2      OT      -0.834000       15.9994           0
       674 W2       225      TIP3     H1       HT       0.417000       1.00800           0
       675 W2       225      TIP3     H2       HT       0.417000       1.00800           0
       676 W2       226      TIP3     OH2      OT      -0.834000       15.9994           0
       677 W2       226      TIP3     H1       HT       0.417000       1.00800           0
       678 W2       226      TIP3     H2       HT       0.417000       1.00800           0
       679 W2       227      TIP3     OH2      OT      -0.834000       15.9994           0
       680 W2       227      TIP3     H1       HT       0.417000       1.00800           0
       681 W2       227      TIP3     H2       HT       0.417000       1.00800           0
       682 W2       228      TIP3     OH2      OT      -0.834000       15.9994           0
       683 W2       228      TIP3     H1       HT       0.417000       1.00800           0
       684 W2       228      TIP3     H2       HT       0.417000       1.00800           0
       685 W2       229      TIP3     OH2      OT      -0.834000       15.9994           0
       686 W2       229      TIP3     H1       HT       0.417000       1.00800           0
       687 W2       229      TIP3     H2       HT       0.417000       1.00800           0
       688 W2       230      TIP3     OH2      OT      -0.834000       15.9994           0
       689 W2       230      TIP3     H1       HT       0.417000       1.00800           0
       690 W2       230      TIP3     H2       HT       0.417000       1.00800           0
       691 W2       231      TIP3     OH2      OT      -0.834000       15.9994           0
       692 W2       231      TIP3     H1       HT       0.417000       1.00800           0
       693 W2       231      TIP3     H2       HT       0.417000       1.00800           0
       694 W2       232      TIP3     OH2      OT      -0.834000       15.9994           0
       695 W2       232      TIP3     H1       HT       0.417000       1.00800           0
       696 W2       232      TIP3     H2       HT       0.417000       1.00800           0
       697 W2       233      TIP3     OH2      OT      -0.834000       15.9994           0
       698 W2       233      TIP3     H1       HT       0.417000       1.00800           0
       699 W2       233      TIP3     H2       HT       0.417000       1.00800           0
       700 W2       234      TIP3     OH2      OT      -0.834000       15.9994           0
       701 W2       234      TIP3     H1       HT       0.417000       1.00800           0
       702 W2       234      TIP3     H2       HT       0.417000       1.00800           0
       703 W2       235      TIP3     OH2      OT      -0.834000       15.9994           0
       704 W2       235      TIP3     H1       HT       0.417000       1.00800           0
       705 W2       235      TIP3     H2       HT       0.417000       1.00800           0
       706 W2       236      TIP3     OH2      OT      -0.834000       15.9994           0
       707 W2       236      TIP3     H1       HT       0.417000       1.00800           0
       708 W2       236      TIP3     H2       HT       0.417000       1.00800           0
       709 W2       237      TIP3     OH2      OT      -0.834000       15.9994           0
       710 W2       237      TIP3     H1       HT       0.417000       1.00800           0
       711 W2       237      TIP3     H2       HT       0.417000       1.00800           0
       712 W2       238      TIP3     OH2      OT      -0.834000       15.9994           0
       713 W2       238      TIP3     H1       HT       0.417000       1.00800           0
       714 W2       238      TIP3     H2       HT       0.417000       1.00800           0
       715 W2       239      TIP3     OH2      OT      -0.834000       15.9994           0
       716 W2       239      TIP3     H1       HT       0.417000       1.00800           0
       717 W2       239      TIP3     H2       HT       0.417000       1.00800           0
       718 W2       240      TIP3     OH2      OT      -0.834000       15.9994           0
       719 W2       240      TIP3     H1       HT       0.417000       1.00800           0
       720 W2       240      TIP3     H2       HT       0.417000       1.00800           0
       721 W2       241      TIP3     OH2      OT      -0.834000       15.9994           0
       722 W2       241      TIP3     H1       HT       0.417000       1.00800           0
       723 W2       241      TIP3     H2       HT       0.417000       1.00800           0
       724 W2       242      TIP3     OH2      OT      -0.834000       15.9994           0
       725 W2       242      TIP3     H1       HT       0.417000       1.00800           0
       726 W2       242      TIP3     H2       HT       0.417000       1.00800           0
       727 W2       243      TIP3     OH2      OT      -0.834000       15.9994           0
       728 W2       243      TIP3     H1       HT       0.417000       1.00800           0
       729 W2       243      TIP3     H2       HT       0.417000       1.00800           0
       730 W2       244      TIP3     OH2      OT      -0.834000       15.9994           0
       731 W2       244      TIP3     H1       HT       0.417000       1.00800           0
       732 W2       244      TIP3     H2       HT       0.417000       1.00800           0
       733 W2       245      TIP3     OH2      OT      -0.834000       15.9994           0
       734 W2       245      TIP3     H1       HT       0.417000       1.00800           0
       735 W2       245      TIP3     H2       HT       0.417000       1.00800           0
       736 W2       246      TIP3     OH2      OT      -0.834000       15.9994           0
       737 W2       246      TIP3     H1       HT       0.417000       1.00800           0
       738 W2       246      TIP3     H2       HT       0.417000       1.00800           0
       739 W2       247      TIP3     OH2      OT      -0.834000       15.9994           0
       740 W2       247      TIP3     H1       HT       0.417000       1.00800           0
       741 W2       247      TIP3     H2       HT       0.417000       1.00800           0
       742 W2       248      TIP3     OH2      OT      -0.834000       15.9994           0
       743 W2       248      TIP3     H1       HT       0.417000       1.00800           0
       744 W2       248      TIP3     H2       HT       0.417000       1.00800           0
       745 W2       249      TIP3     OH2      OT      -0.834000       15.9994           0
       746 W2       249      TIP3     H1       HT       0.417000       1.00800           0
       747 W2       249      TIP3     H2       HT       0.417000       1.00800           0
       748 W2       250      TIP3     OH2      OT      -0.834000       15.9994           0
       749 W2       250      TIP3     H1       HT       0.417000       1.00800           0
       750 W2       250      TIP3     H2       HT       0.417000       1.00800           0
       751 W2       251      TIP3     OH2      OT      -0.834000       15.9994           0
       752 W2       251      TIP3     H1       HT       0.417000       1.00800           0
       753 W2       251      TIP3     H2       HT       0.417000       1.00800           0
       754 W2       252      TIP3     OH2      OT      -0.834000       15.9994           0
       755 W2       252      TIP3     H1       HT       0.417000       1.00800           0
       756 W2       252      TIP3     H2       HT       0.417000       1.00800           0
       757 W2       253      TIP3     OH2      OT      -0.834000       15.9994           0
       758 W2       253      TIP3     H1       HT       0.417000       1.00800           0
       759 W2       253      TIP3     H2       HT       0.417000       1.00800           0
       760 W2       254      TIP3     OH2      OT      -0.834000       15.9994           0
       761 W2       254      TIP3     H1       HT       0.417000       1.00800           0
       762 W2       254      TIP3     H2       HT       0.417000       1.00800           0
       763 W2       255      TIP3     OH2      OT      -0.834000       15.9994           0
       764 W2       255      TIP3     H1       HT       0.417000       1.00800           0
       765 W2       255      TIP3     H2       HT       0.417000       1.00800           0
       766 W2       256      TIP3     OH2      OT      -0.834000       15.9994           0
       767 W2       256      TIP3     H1       HT       0.417000       1.00800           0
       768 W2       256      TIP3     H2       HT       0.417000       1.00800           0
       769 W2       257      TIP3     OH2      OT      -0.834000       15.9994           0
       770 W2       257      TIP3     H1       HT       0.417000       1.00800           0
       771 W2       257      TIP3     H2       HT       0.417000       1.00800           0
       772 W2       258      TIP3     OH2      OT      -0.834000       15.9994           0
       773 W2       258      TIP3     H1       HT       0.417000       1.00800           0
       774 W2       258      TIP3     H2       HT       0.417000       1.00800           0
       775 W2       259      TIP3     OH2      OT      -0.834000       15.9994           0
       776 W2       259      TIP3     H1       HT       0.417000       1.00800           0
       777 W2       259      TIP3     H2       HT       0.417000       1.00800           0
       778 W2       260      TIP3     OH2      OT      -0.834000       15.9994           0
       779 W2       260      TIP3     H1       HT       0.417000       1.00800           0
       780 W2       260      TIP3     H2       HT       0.417000       1.00800           0
       781 W2       261      TIP3     OH2      OT      -0.834000       15.9994           0
       782 W2       261      TIP3     H1       HT       0.417000       1.00800           0
       783 W2       261      TIP3     H2       HT       0.417000       1.00800           0
       784 W2       262      TIP3     OH2      OT      -0.834000       15.9994           0
       785 W2       262      TIP3     H1       HT       0.417000       1.00800           0
       786 W2       262      TIP3     H2       HT       0.417000       1.00800           0
       787 W2       263      TIP3     OH2      OT      -0.834000       15.9994           0
       788 W2       263      TIP3     H1       HT       0.417000       1.00800           0
       789 W2       263      TIP3     H2       HT       0.417000       1.00800           0
       790 W2       264      TIP3     OH2      OT      -0.834000       15.9994           0
       791 W2       264      TIP3     H1       HT       0.417000       1.00800           0
       792 W2       264      TIP3     H2       HT       0.417000       1.00800           0
       793 W2       265      TIP3     OH2      OT      -0.834000       15.9994           0
       794 W2       265      TIP3     H1       HT       0.417000       1.00800           0
       795 W2       265      TIP3     H2       HT       0.417000       1.00800           0
       796 W2       266      TIP3     OH2      OT      -0.834000       15.9994           0
       797 W2       266      TIP3     H1       HT       0.417000       1.00800           0
       798 W2       266      TIP3     H2       HT       0.417000       1.00800           0
       799 W2       267      TIP3     OH2      OT      -0.834000       15.9994           0
       800 W2       267      TIP3     H1       HT       0.417000       1.00800           0
       801 W2       267      TIP3     H2       HT       0.417000       1.00800           0
       802 W2       268      TIP3     OH2      OT      -0.834000       15.9994           0
       803 W2       268      TIP3     H1       HT       0.417000       1.00800           0
       804 W2       268      TIP3     H2       HT       0.417000       1.00800           0
       805 W2       269      TIP3     OH2      OT      -0.834000       15.9994           0
       806 W2       269      TIP3     H1       HT       0.417000       1.00800           0
       807 W2       269      TIP3     H2       HT       0.417000       1.00800           0
       808 W2       270      TIP3     OH2      OT      -0.834000       15.9994           0
       809 W2       270      TIP3     H1       HT       0.417000       1.00800           0
       810 W2       270      TIP3     H2       HT       0.417000       1.00800           0
       811 W2       271      TIP3     OH2      OT      -0.834000       15.9994           0
       812 W2       271      TIP3     H1       HT       0.417000       1.00800           0
       813 W2       271      TIP3     H2       HT       0.417000       1.00800           0
       814 W2       272      TIP3     OH2      OT      -0.834000       15.9994           0
       815 W2       272      TIP3     H1       HT       0.417000       1.00800           0
       816 W2       272      TIP3     H2       HT       0.417000       1.00800           0
       817 W2       273      TIP3     OH2      OT      -0.834000       15.9994           0
       818 W2       273      TIP3     H1       HT       0.417000       1.00800           0
       819 W2       273      TIP3     H2       HT       0.417000       1.00800           0
       820 W2       274      TIP3     OH2      OT      -0.834000       15.9994           0
       821 W2       274      TIP3     H1       HT       0.417000       1.00800           0
       822 W2       274      TIP3     H2       HT       0.417000       1.00800           0
       823 W2       275      TIP3     OH2      OT      -0.834000       15.9994           0
       824 W2       275      TIP3     H1       HT       0.417000       1.00800           0
       825 W2       275      TIP3     H2       HT       0.417000       1.00800           0
       826 W2       276      TIP3     OH2      OT      -0.834000       15.9994           0
       827 W2       276      TIP3     H1       HT       0.417000       1.00800           0
       828 W2       276      TIP3     H2       HT       0.417000       1.00800           0
       829 W2       277      TIP3     OH2      OT      -0.834000       15.9994           0
       830 W2       277      TIP3     H1       HT       0.417000       1.00800           0
       831 W2       277      TIP3     H2       HT       0.417000       1.00800           0
       832 W2       278      TIP3     OH2      OT      -0.834000       15.9994           0
       833 W2       278      TIP3     H1       HT       0.417000       1.00800           0
       834 W2       278      TIP3     H2       HT       0.417000       1.00800           0
       835 W2       279      TIP3     OH2      OT      -0.834000       15.9994           0
       836 W2       279      TIP3     H1       HT       0.417000       1.00800           0
       837 W2       279      TIP3     H2       HT       0.417000       1.00800           0
       838 W2       280      TIP3     OH2      OT      -0.834000       15.9994           0
       839 W2       280      TIP3     H1       HT       0.417000       1.00800           0
       840 W2       280      TIP3     H2       HT       0.417000       1.00800           0
       841 W2       281      TIP3     OH2      OT      -0.834000       15.9994           0
       842 W2       281      TIP3     H1       HT       0.417000       1.00800           0
       843 W2       281      TIP3     H2       HT       0.417000       1.00800           0
       844 W2       282      TIP3     OH2      OT      -0.834000       15.9994           0
       845 W2       282      TIP3     H1       HT       0.417000       1.00800           0
       846 W2       282      TIP3     H2       HT       0.417000       1.00800           0
       847 W2       283      TIP3     OH2      OT      -0.834000       15.9994           0
       848 W2       283      TIP3     H1       HT       0.417000       1.00800           0
       849 W2       283      TIP3     H2       HT       0.417000       1.00800           0
       850 W2       284      TIP3     OH2      OT      -0.834000       15.9994           0
       851 W2       284      TIP3     H1       HT       0.417000       1.00800           0
       852 W2       284      TIP3     H2       HT       0.417000       1.00800           0
       853 W2       285      TIP3     OH2      OT      -0.834000       15.9994           0
       854 W2       285      TIP3     H1       HT       0.417000       1.00800           0
       855 W2       285      TIP3     H2       HT       0.417000       1.00800           0
       856 W2       286      TIP3     OH2      OT      -0.834000       15.9994           0
       857 W2       286      TIP3     H1       HT       0.417000       1.00800           0
       858 W2       286      TIP3     H2       HT       0.417000       1.00800           0
       859 W2       287      TIP3     OH2      OT      -0.834000       15.9994           0
       860 W2       287      TIP3     H1       HT       0.417000       1.00800           0
       861 W2       287      TIP3     H2       HT       0.417000       1.00800           0
       862 W2       288      TIP3     OH2      OT      -0.834000       15.9994           0
       863 W2       288      TIP3     H1       HT       0.417000       1.00800           0
       864 W2       288      TIP3     H2       HT       0.417000       1.00800           0
       865 W2       289      TIP3     OH2      OT      -0.834000       15.9994           0
       866 W2       289      TIP3     H1       HT       0.417000       1.00800           0
       867 W2       289      TIP3     H2       HT       0.417000       1.00800           0
       868 W2       290      TIP3     OH2      OT      -0.834000       15.9994           0
       869 W2       290      TIP3     H1       HT       0.417000       1.00800           0
       870 W2       290      TIP3     H2       HT       0.417000       1.00800           0
       871 W2       291      TIP3     OH2      OT      -0.834000       15.9994           0
       872 W2       291      TIP3     H1       HT       0.417000       1.00800           0
       873 W2       291      TIP3     H2       HT       0.417000       1.00800           0
       874 W2       292      TIP3     OH2      OT      -0.834000       15.9994           0
       875 W2       292      TIP3     H1       HT       0.417000       1.00800           0
       876 W2       292      TIP3     H2       HT       0.417000       1.00800           0
       877 W2       293      TIP3     OH2      OT      -0.834000       15.9994           0
       878 W2       293      TIP3     H1       HT       0.417000       1.00800           0
       879 W2       293      TIP3     H2       HT       0.417000       1.00800           0
       880 W2       294      TIP3     OH2      OT      -0.834000       15.9994           0
       881 W2       294      TIP3     H1       HT       0.417000       1.00800           0
       882 W2       294      TIP3     H2       HT       0.417000       1.00800           0
       883 W2       295      TIP3     OH2      OT      -0.834000       15.9994           0
       884 W2       295      TIP3     H1       HT       0.417000       1.00800           0
       885 W2       295      TIP3     H2       HT       0.417000       1.00800           0
       886 W2       296      TIP3     OH2      OT      -0.834000       15.9994           0
       887 W2       296      TIP3     H1       HT       0.417000       1.00800           0
       888 W2       296      TIP3     H2       HT       0.417000       1.00800           0
       889 W2       297      TIP3     OH2      OT      -0.834000       15.9994           0
       890 W2       297      TIP3     H1       HT       0.417000       1.00800           0
       891 W2       297      TIP3     H2       HT       0.417000       1.00800           0
       892 W2       298      TIP3     OH2      OT      -0.834000       15.9994           0
       893 W2       298      TIP3     H1       HT       0.417000       1.00800           0
       894 W2       298      TIP3     H2       HT       0.417000       1.00800           0
       895 W2       299      TIP3     OH2      OT      -0.834000       15.9994           0
       896 W2       299      TIP3     H1       HT       0.417000       1.00800           0
       897 W2       299      TIP3     H2       HT       0.417000       1.00800           0
       898 W2       300      TIP3     OH2      OT      -0.834000       15.9994           0
       899 W2       300      TIP3     H1       HT       0.417000       1.00800           0
       900 W2       300      TIP3     H2       HT       0.417000       1.00800           0
       901 W2       301      TIP3     OH2      OT      -0.834000       15.9994           0
       902 W2       301      TIP3     H1       HT       0.417000       1.00800           0
       903 W2       301      TIP3     H2       HT       0.417000       1.00800           0
       904 W2       302      TIP3     OH2      OT      -0.834000       15.9994           0
       905 W2       302      TIP3     H1       HT       0.417000       1.00800           0
       906 W2       302      TIP3     H2       HT       0.417000       1.00800           0
       907 W2       303      TIP3     OH2      OT      -0.834000       15.9994           0
       908 W2       303      TIP3     H1       HT       0.417000       1.00800           0
       909 W2       303      TIP3     H2       HT       0.417000       1.00800           0
       910 W2       304      TIP3     OH2      OT      -0.834000       15.9994           0
       911 W2       304      TIP3     H1       HT       0.417000       1.00800           0
       912 W2       304      TIP3     H2       HT       0.417000       1.00800           0
       913 W2       305      TIP3     OH2      OT      -0.834000       15.9994           0
       914 W2       305      TIP3     H1       HT       0.417000       1.00800           0
       915 W2       305      TIP3     H2       HT       0.417000       1.00800           0
       916 W2       306      TIP3     OH2      OT      -0.834000       15.9994           0
       917 W2       306      TIP3     H1       HT       0.417000       1.00800           0
       918 W2       306      TIP3     H2       HT       0.417000       1.00800           0
       919 W2       307      TIP3     OH2      OT      -0.834000       15.9994           0
       920 W2       307      TIP3     H1       HT       0.417000       1.00800           0
       921 W2       307      TIP3     H2       HT       0.417000       1.00800           0
       922 W2       308      TIP3     OH2      OT      -0.834000       15.9994           0
       923 W2       308      TIP3     H1       HT       0.417000       1.00800           0
       924 W2       308      TIP3     H2       HT       0.417000       1.00800           0
       925 W2       309      TIP3     OH2      OT      -0.834000       15.9994           0
       926 W2       309      TIP3     H1       HT       0.417000       1.00800           0
       927 W2       309      TIP3     H2       HT       0.417000       1.00800           0
       928 W2       310      TIP3     OH2      OT      -0.834000       15.9994           0
       929 W2       310      TIP3     H1       HT       0.417000       1.00800           0
       930 W2       310      TIP3     H2       HT       0.417000       1.00800           0
       931 W2       311      TIP3     OH2      OT      -0.834000       15.9994           0
       932 W2       311      TIP3     H1       HT       0.417000       1.00800           0
       933 W2       311      TIP3     H2       HT       0.417000       1.00800           0
       934 W2       312      TIP3     OH2      OT      -0.834000       15.9994           0
       935 W2       312      TIP3     H1       HT       0.417000       1.00800           0
       936 W2       312      TIP3     H2       HT       0.417000       1.00800           0
       937 W2       313      TIP3     OH2      OT      -0.834000       15.9994           0
       938 W2       313      TIP3     H1       HT       0.417000       1.00800           0
       939 W2       313      TIP3     H2       HT       0.417000       1.00800           0
       940 W2       314      TIP3     OH2      OT      -0.834000       15.9994           0
       941 W2       314      TIP3     H1       HT       0.417000       1.00800           0
       942 W2       314      TIP3     H2       HT       0.417000       1.00800           0
       943 W2       315      TIP3     OH2      OT      -0.834000       15.9994           0
       944 W2       315      TIP3     H1       HT       0.417000       1.00800           0
       945 W2       315      TIP3     H2       HT       0.417000       1.00800           0
       946 W2       316      TIP3     OH2      OT      -0.834000       15.9994           0
       947 W2       316      TIP3     H1       HT       0.417000       1.00800           0
       948 W2       316      TIP3     H2       HT       0.417000       1.00800           0
       949 W2       317      TIP3     OH2      OT      -0.834000       15.9994           0
       950 W2       317      TIP3     H1       HT       0.417000       1.00800           0
       951 W2       317      TIP3     H2       HT       0.417000       1.00800           0
       952 W2       318      TIP3     OH2      OT      -0.834000       15.9994           0
       953 W2       318      TIP3     H1       HT       0.417000       1.00800           0
       954 W2       318      TIP3     H2       HT       0.417000       1.00800           0
       955 W2       319      TIP3     OH2      OT      -0.834000       15.9994           0
       956 W2       319      TIP3     H1       HT       0.417000       1.00800           0
       957 W2       319      TIP3     H2       HT       0.417000       1.00800           0
       958 W2       320      TIP3     OH2      OT      -0.834000       15.9994           0
       959 W2       320      TIP3     H1       HT       0.417000       1.00800           0
       960 W2       320      TIP3     H2       HT       0.417000       1.00800           0
       961 W2       321      TIP3     OH2      OT      -0.834000       15.9994           0
       962 W2       321      TIP3     H1       HT       0.417000       1.00800           0
       963 W2       321      TIP3     H2       HT       0.417000       1.00800           0
       964 W2       322      TIP3     OH2      OT      -0.834000       15.9994           0
       965 W2       322      TIP3     H1       HT       0.417000       1.00800           0
       966 W2       322      TIP3     H2       HT       0.417000       1.00800           0
       967 W2       323      TIP3     OH2      OT      -0.834000       15.9994           0
       968 W2       323      TIP3     H1       HT       0.417000       1.00800           0
       969 W2       323      TIP3     H2       HT       0.417000       1.00800           0
       970 W2       324      TIP3     OH2      OT      -0.834000       15.9994           0
       971 W2       324      TIP3     H1       HT       0.417000       1.00800           0
       972 W2       324      TIP3     H2       HT       0.417000       1.00800           0
       973 W2       325      TIP3     OH2      OT      -0.834000       15.9994           0
       974 W2       325      TIP3     H1       HT       0.417000       1.00800           0
       975 W2       325      TIP3     H2       HT       0.417000       1.00800           0
       976 W2       326      TIP3     OH2      OT      -0.834000       15.9994           0
       977 W2       326      TIP3     H1       HT       0.417000       1.00800           0
       978 W2       326      TIP3     H2       HT       0.417000       1.00800           0
       979 W2       327      TIP3     OH2      OT      -0.834000       15.9994           0
       980 W2       327      TIP3     H1       HT       0.417000       1.00800           0
       981 W2       327      TIP3     H2       HT       0.417000       1.00800           0
       982 W2       328      TIP3     OH2      OT      -0.834000       15.9994           0
       983 W2       328      TIP3     H1       HT       0.417000       1.00800           0
       984 W2       328      TIP3     H2       HT       0.417000       1.00800           0
       985 W2       329      TIP3     OH2      OT      -0.834000       15.9994           0
       986 W2       329      TIP3     H1       HT       0.417000       1.00800           0
       987 W2       329      TIP3     H2       HT       0.417000       1.00800           0
       988 W2       330      TIP3     OH2      OT      -0.834000       15.9994           0
       989 W2       330      TIP3     H1       HT       0.417000       1.00800           0
       990 W2       330      TIP3     H2       HT       0.417000       1.00800           0
       991 W2       331      TIP3     OH2      OT      -0.834000       15.9994           0
       992 W2       331      TIP3     H1       HT       0.417000       1.00800           0
       993 W2       331      TIP3     H2       HT       0.417000       1.00800           0
       994 W2       332      TIP3     OH2      OT      -0.834000       15.9994           0
       995 W2       332      TIP3     H1       HT       0.417000       1.00800           0
       996 W2       332      TIP3     H2       HT       0.417000       1.00800           0
       997 W2       333      TIP3     OH2      OT      -0.834000       15.9994           0
       998 W2       333      TIP3     H1       HT       0.417000       1.00800           0
       999 W2       333      TIP3     H2       HT       0.417000       1.00800           0
      1000 W2       334      TIP3     OH2      OT      -0.834000       15.9994           0
      1001 W2       334      TIP3     H1       HT       0.417000       1.00800           0
      1002 W2       334      TIP3     H2       HT       0.417000       1.00800           0
      1003 W2       335      TIP3     OH2      OT      -0.834000       15.9994           0
      1004 W2       335      TIP3     H1       HT       0.417000       1.00800           0
      1005 W2       335      TIP3     H2       HT       0.417000       1.00800           0
      1006 W2       336      TIP3     OH2      OT      -0.834000       15.9994           0
      1007 W2       336      TIP3     H1       HT       0.417000       1.00800           0
      1008 W2       336      TIP3     H2       HT       0.417000       1.00800           0
      1009 W2       337      TIP3     OH2      OT      -0.834000       15.9994           0
      1010 W2       337      TIP3     H1       HT       0.417000       1.00800           0
      1011 W2       337      TIP3     H2       HT       0.417000       1.00800           0
      1012 W2       338      TIP3     OH2      OT      -0.834000       15.9994           0
      1013 W2       338      TIP3     H1       HT       0.417000       1.00800           0
      1014 W2       338      TIP3     H2       HT       0.417000       1.00800           0
      1015 W2       339      TIP3     OH2      OT      -0.834000       15.9994           0
      1016 W2       339      TIP3     H1       HT       0.417000       1.00800           0
      1017 W2       339      TIP3     H2       HT       0.417000       1.00800           0
      1018 W2       340      TIP3     OH2      OT      -0.834000       15.9994           0
      1019 W2       340      TIP3     H1       HT       0.417000       1.00800           0
      1020 W2       340      TIP3     H2       HT       0.417000       1.00800           0
      1021 W2       341      TIP3     OH2      OT      -0.834000       15.9994           0
      1022 W2       341      TIP3     H1       HT       0.417000       1.00800           0
      1023 W2       341      TIP3     H2       HT       0.417000       1.00800           0
      1024 W2       342      TIP3     OH2      OT      -0.834000       15.9994           0
      1025 W2       342      TIP3     H1       HT       0.417000       1.00800           0
      1026 W2       342      TIP3     H2       HT       0.417000       1.00800           0
      1027 W2       343      TIP3     OH2      OT      -0.834000       15.9994           0
      1028 W2       343      TIP3     H1       HT       0.417000       1.00800           0
      1029 W2       343      TIP3     H2       HT       0.417000       1.00800           0
      1030 W2       344      TIP3     OH2      OT      -0.834000       15.9994           0
      1031 W2       344      TIP3     H1       HT       0.417000       1.00800           0
      1032 W2       344      TIP3     H2       HT       0.417000       1.00800           0
      1033 W2       345      TIP3     OH2      OT      -0.834000       15.9994           0
      1034 W2       345      TIP3     H1       HT       0.417000       1.00800           0
      1035 W2       345      TIP3     H2       HT       0.417000       1.00800           0
      1036 W2       346      TIP3     OH2      OT      -0.834000       15.9994           0
      1037 W2       346      TIP3     H1       HT       0.417000       1.00800           0
      1038 W2       346      TIP3     H2       HT       0.417000       1.00800           0
      1039 W2       347      TIP3     OH2      OT      -0.834000       15.9994           0
      1040 W2       347      TIP3     H1       HT       0.417000       1.00800           0
      1041 W2       347      TIP3     H2       HT       0.417000       1.00800           0
      1042 W2       348      TIP3     OH2      OT      -0.834000       15.9994           0
      1043 W2       348      TIP3     H1       HT       0.417000       1.00800           0
      1044 W2       348      TIP3     H2       HT       0.417000       1.00800           0
      1045 W2       349      TIP3     OH2      OT      -0.834000       15.9994           0
      1046 W2       349      TIP3     H1       HT       0.417000       1.00800           0
      1047 W2       349      TIP3     H2       HT       0.417000       1.00800           0
      1048 W2       350      TIP3     OH2      OT      -0.834000       15.9994           0
      1049 W2       350      TIP3     H1       HT       0.417000       1.00800           0
      1050 W2       350      TIP3     H2       HT       0.417000       1.00800           0
      1051 W2       351      TIP3     OH2      OT      -0.834000       15.9994           0
      1052 W2       351      TIP3     H1       HT       0.417000       1.00800           0
      1053 W2       351      TIP3     H2       HT       0.417000       1.00800           0
      1054 W2       352      TIP3     OH2      OT      -0.834000       15.9994           0
      1055 W2       352      TIP3     H1       HT       0.417000       1.00800           0
      1056 W2       352      TIP3     H2       HT       0.417000       1.00800           0
      1057 W2       353      TIP3     OH2      OT      -0.834000       15.9994           0
      1058 W2       353      TIP3     H1       HT       0.417000       1.00800           0
      1059 W2       353      TIP3     H2       HT       0.417000       1.00800           0
      1060 W2       354      TIP3     OH2      OT      -0.834000       15.9994           0
      1061 W2       354      TIP3     H1       HT       0.417000       1.00800           0
      1062 W2       354      TIP3     H2       HT       0.417000       1.00800           0
      1063 W2       355      TIP3     OH2      OT      -0.834000       15.9994           0
      1064 W2       355      TIP3     H1       HT       0.417000       1.00800           0
      1065 W2       355      TIP3     H2       HT       0.417000       1.00800           0
      1066 W2       356      TIP3     OH2      OT      -0.834000       15.9994           0
      1067 W2       356      TIP3     H1       HT       0.417000       1.00800           0
      1068 W2       356      TIP3     H2       HT       0.417000       1.00800           0
      1069 W2       357      TIP3     OH2      OT      -0.834000       15.9994           0
      1070 W2       357      TIP3     H1       HT       0.417000       1.00800           0
      1071 W2       357      TIP3     H2       HT       0.417000       1.00800           0
      1072 W2       358      TIP3     OH2      OT      -0.834000       15.9994           0
      1073 W2       358      TIP3     H1       HT       0.417000       1.00800           0
      1074 W2       358      TIP3     H2       HT       0.417000       1.00800           0
      1075 W2       359      TIP3     OH2      OT      -0.834000       15.9994           0
      1076 W2       359      TIP3     H1       HT       0.417000       1.00800           0
      1077 W2       359      TIP3     H2       HT       0.417000       1.00800           0
      1078 W2       360      TIP3     OH2      OT      -0.834000       15.9994           0
      1079 W2       360      TIP3     H1       HT       0.417000       1.00800           0
      1080 W2       360      TIP3     H2       HT       0.417000       1.00800           0
      1081 W2       361      TIP3     OH2      OT      -0.834000       15.9994           0
      1082 W2       361      TIP3     H1       HT       0.417000       1.00800           0
      1083 W2       361      TIP3     H2       HT       0.417000       1.00800           0
      1084 W2       362      TIP3     OH2      OT      -0.834000       15.9994           0
      1085 W2       362      TIP3     H1       HT       0.417000       1.00800           0
      1086 W2       362      TIP3     H2       HT       0.417000       1.00800           0
      1087 W2       363      TIP3     OH2      OT      -0.834000       15.9994           0
      1088 W2       363      TIP3     H1       HT       0.417000       1.00800           0
      1089 W2       363      TIP3     H2       HT       0.417000       1.00800           0
      1090 W2       364      TIP3     OH2      OT      -0.834000       15.9994           0
      1091 W2       364      TIP3     H1       HT       0.417000       1.00800           0
      1092 W2       364      TIP3     H2       HT       0.417000       1.00800           0
      1093 W2       365      TIP3     OH2      OT      -0.834000       15.9994           0
      1094 W2       365      TIP3     H1       HT       0.417000       1.00800           0
      1095 W2       365      TIP3     H2       HT       0.417000       1.00800           0
      1096 W2       366      TIP3     OH2      OT      -0.834000       15.9994           0
      1097 W2       366      TIP3     H1       HT       0.417000       1.00800           0
      1098 W2       366      TIP3     H2       HT       0.417000       1.00800           0
      1099 W2       367      TIP3     OH2      OT      -0.834000       15.9994           0
      1100 W2       367      TIP3     H1       HT       0.417000       1.00800           0
      1101 W2       367      TIP3     H2       HT       0.417000       1.00800           0
      1102 W2       368      TIP3     OH2      OT      -0.834000       15.9994           0
      1103 W2       368      TIP3     H1       HT       0.417000       1.00800           0
      1104 W2       368      TIP3     H2       HT       0.417000       1.00800           0
      1105 W2       369      TIP3     OH2      OT      -0.834000       15.9994           0
      1106 W2       369      TIP3     H1       HT       0.417000       1.00800           0
      1107 W2       369      TIP3     H2       HT       0.417000       1.00800           0
      1108 W2       370      TIP3     OH2      OT      -0.834000       15.9994           0
      1109 W2       370      TIP3     H1       HT       0.417000       1.00800           0
      1110 W2       370      TIP3     H2       HT       0.417000       1.00800           0
      1111 W2       371      TIP3     OH2      OT      -0.834000       15.9994           0
      1112 W2       371      TIP3     H1       HT       0.417000       1.00800           0
      1113 W2       371      TIP3     H2       HT       0.417000       1.00800           0
      1114 W2       372      TIP3     OH2      OT      -0.834000       15.9994           0
      1115 W2       372      TIP3     H1       HT       0.417000       1.00800           0
      1116 W2       372      TIP3     H2       HT       0.417000       1.00800           0
      1117 W2       373      TIP3     OH2      OT      -0.834000       15.9994           0
      1118 W2       373      TIP3     H1       HT       0.417000       1.00800           0
      1119 W2       373      TIP3     H2       HT       0.417000       1.00800           0
      1120 W2       374      TIP3     OH2      OT      -0.834000       15.9994           0
      1121 W2       374      TIP3     H1       HT       0.417000       1.00800           0
      1122 W2       374      TIP3     H2       HT       0.417000       1.00800           0
      1123 W2       375      TIP3     OH2      OT      -0.834000       15.9994           0
      1124 W2       375      TIP3     H1       HT       0.417000       1.00800           0
      1125 W2       375      TIP3     H2       HT       0.417000       1.00800           0
      1126 W2       376      TIP3     OH2      OT      -0.834000       15.9994           0
      1127 W2       376      TIP3     H1       HT       0.417000       1.00800           0
      1128 W2       376      TIP3     H2       HT       0.417000       1.00800           0
      1129 W2       377      TIP3     OH2      OT      -0.834000       15.9994           0
      1130 W2       377      TIP3     H1       HT       0.417000       1.00800           0
      1131 W2       377      TIP3     H2       HT       0.417000       1.00800           0
      1132 W2       378      TIP3     OH2      OT      -0.834000       15.9994           0
      1133 W2       378      TIP3     H1       HT       0.417000       1.00800           0
      1134 W2       378      TIP3     H2       HT       0.417000       1.00800           0
      1135 W2       379      TIP3     OH2      OT      -0.834000       15.9994           0
      1136 W2       379      TIP3     H1       HT       0.417000       1.00800           0
      1137 W2       379      TIP3     H2       HT       0.417000       1.00800           0
      1138 W2       380      TIP3     OH2      OT      -0.834000       15.9994           0
      1139 W2       380      TIP3     H1       HT       0.417000       1.00800           0
      1140 W2       380      TIP3     H2       HT       0.417000       1.00800           0
      1141 W2       381      TIP3     OH2      OT      -0.834000       15.9994           0
      1142 W2       381      TIP3     H1       HT       0.417000       1.00800           0
      1143 W2       381      TIP3     H2       HT       0.417000       1.00800           0
      1144 W2       382      TIP3     OH2      OT      -0.834000       15.9994           0
      1145 W2       382      TIP3     H1       HT       0.417000       1.00800           0
      1146 W2       382      TIP3     H2       HT       0.417000       1.00800           0
      1147 W2       383      TIP3     OH2      OT      -0.834000       15.9994           0
      1148 W2       383      TIP3     H1       HT       0.417000       1.00800           0
      1149 W2       383      TIP3     H2       HT       0.417000       1.00800           0
      1150 W2       384      TIP3     OH2      OT      -0.834000       15.9994           0
      1151 W2       384      TIP3     H1       HT       0.417000       1.00800           0
      1152 W2       384      TIP3     H2       HT       0.417000       1.00800           0
      1153 W2       385      TIP3     OH2      OT      -0.834000       15.9994           0
      1154 W2       385      TIP3     H1       HT       0.417000       1.00800           0
      1155 W2       385      TIP3     H2       HT       0.417000       1.00800           0
      1156 W2       386      TIP3     OH2      OT      -0.834000       15.9994           0
      1157 W2       386      TIP3     H1       HT       0.417000       1.00800           0
      1158 W2       386      TIP3     H2       HT       0.417000       1.00800           0
      1159 W2       387      TIP3     OH2      OT      -0.834000       15.9994           0
      1160 W2       387      TIP3     H1       HT       0.417000       1.00800           0
      1161 W2       387      TIP3     H2       HT       0.417000       1.00800           0
      1162 W2       388      TIP3     OH2      OT      -0.834000       15.9994           0
      1163 W2       388      TIP3     H1       HT       0.417000       1.00800           0
      1164 W2       388      TIP3     H2       HT       0.417000       1.00800           0
      1165 W2       389      TIP3     OH2      OT      -0.834000       15.9994           0
      1166 W2       389      TIP3     H1       HT       0.417000       1.00800           0
      1167 W2       389      TIP3     H2       HT       0.417000       1.00800           0
      1168 W2       390      TIP3     OH2      OT      -0.834000       15.9994           0
      1169 W2       390      TIP3     H1       HT       0.417000       1.00800           0
      1170 W2       390      TIP3     H2       HT       0.417000       1.00800           0
      1171 W2       391      TIP3     OH2      OT      -0.834000       15.9994           0
      1172 W2       391      TIP3     H1       HT       0.417000       1.00800           0
      1173 W2       391      TIP3     H2       HT       0.417000       1.00800           0
      1174 W2       392      TIP3     OH2      OT      -0.834000       15.9994           0
      1175 W2       392      TIP3     H1       HT       0.417000       1.00800           0
      1176 W2       392      TIP3     H2       HT       0.417000       1.00800           0
      1177 W2       393      TIP3     OH2      OT      -0.834000       15.9994           0
      1178 W2       393      TIP3     H1       HT       0.417000       1.00800           0
      1179 W2       393      TIP3     H2       HT       0.417000       1.00800           0
      1180 W2       394      TIP3     OH2      OT      -0.834000       15.9994           0
      1181 W2       394      TIP3     H1       HT       0.417000       1.00800           0
      1182 W2       394      TIP3     H2       HT       0.417000       1.00800           0
      1183 W2       395      TIP3     OH2      OT      -0.834000       15.9994           0
      1184 W2       395      TIP3     H1       HT       0.417000       1.00800           0
      1185 W2       395      TIP3     H2       HT       0.417000       1.00800           0
      1186 W2       396      TIP3     OH2      OT      -0.834000       15.9994           0
      1187 W2       396      TIP3     H1       HT       0.417000       1.00800           0
      1188 W2       396      TIP3     H2       HT       0.417000       1.00800           0
      1189 W2       397      TIP3     OH2      OT      -0.834000       15.9994           0
      1190 W2       397      TIP3     H1       HT       0.417000       1.00800           0
      1191 W2       397      TIP3     H2       HT       0.417000       1.00800           0
      1192 W2       398      TIP3     OH2      OT      -0.834000       15.9994           0
      1193 W2       398      TIP3     H1       HT       0.417000       1.00800           0
      1194 W2       398      TIP3     H2       HT       0.417000       1.00800           0
      1195 W2       399      TIP3     OH2      OT      -0.834000       15.9994           0
      1196 W2       399      TIP3     H1       HT       0.417000       1.00800           0
      1197 W2       399      TIP3     H2       HT       0.417000       1.00800           0
      1198 W2       400      TIP3     OH2      OT      -0.834000       15.9994           0
      1199 W2       400      TIP3     H1       HT       0.417000       1.00800           0
      1200 W2       400      TIP3     H2       HT       0.417000       1.00800           0
      1201 W2       401      TIP3     OH2      OT      -0.834000       15.9994           0
      1202 W2       401      TIP3     H1       HT       0.417000       1.00800           0
      1203 W2       401      TIP3     H2       HT       0.417000       1.00800           0
      1204 W2       402      TIP3     OH2      OT      -0.834000       15.9994           0
      1205 W2       402      TIP3     H1       HT       0.417000       1.00800           0
      1206 W2       402      TIP3     H2       HT       0.417000       1.00800           0
      1207 W2       403      TIP3     OH2      OT      -0.834000       15.9994           0
      1208 W2       403      TIP3     H1       HT       0.417000       1.00800           0
      1209 W2       403      TIP3     H2       HT       0.417000       1.00800           0
      1210 W2       404      TIP3     OH2      OT      -0.834000       15.9994           0
      1211 W2       404      TIP3     H1       HT       0.417000       1.00800           0
      1212 W2       404      TIP3     H2       HT       0.417000       1.00800           0
      1213 W2       405      TIP3     OH2      OT      -0.834000       15.9994           0
      1214 W2       405      TIP3     H1       HT       0.417000       1.00800           0
      1215 W2       405      TIP3     H2       HT       0.417000       1.00800           0
      1216 W2       406      TIP3     OH2      OT      -0.834000       15.9994           0
      1217 W2       406      TIP3     H1       HT       0.417000       1.00800           0
      1218 W2       406      TIP3     H2       HT       0.417000       1.00800           0
      1219 W2       407      TIP3     OH2      OT      -0.834000       15.9994           0
      1220 W2       407      TIP3     H1       HT       0.417000       1.00800           0
      1221 W2       407      TIP3     H2       HT       0.417000       1.00800           0
      1222 W2       408      TIP3     OH2      OT      -0.834000       15.9994           0
      1223 W2       408      TIP3     H1       HT       0.417000       1.00800           0
      1224 W2       408      TIP3     H2       HT       0.417000       1.00800           0
      1225 W2       409      TIP3     OH2      OT      -0.834000       15.9994           0
      1226 W2       409      TIP3     H1       HT       0.417000       1.00800           0
      1227 W2       409      TIP3     H2       HT       0.417000       1.00800           0
      1228 W2       410      TIP3     OH2      OT      -0.834000       15.9994           0
      1229 W2       410      TIP3     H1       HT       0.417000       1.00800           0
      1230 W2       410      TIP3     H2       HT       0.417000       1.00800           0
      1231 W2       411      TIP3     OH2      OT      -0.834000       15.9994           0
      1232 W2       411      TIP3     H1       HT       0.417000       1.00800           0
      1233 W2       411      TIP3     H2       HT       0.417000       1.00800           0
      1234 W2       412      TIP3     OH2      OT      -0.834000       15.9994           0
      1235 W2       412      TIP3     H1       HT       0.417000       1.00800           0
      1236 W2       412      TIP3     H2       HT       0.417000       1.00800           0
      1237 W2       413      TIP3     OH2      OT      -0.834000       15.9994           0
      1238 W2       413      TIP3     H1       HT       0.417000       1.00800           0
      1239 W2       413      TIP3     H2       HT       0.417000       1.00800           0
      1240 W2       414      TIP3     OH2      OT      -0.834000       15.9994           0
      1241 W2       414      TIP3     H1       HT       0.417000       1.00800           0
      1242 W2       414      TIP3     H2       HT       0.417000       1.00800           0
      1243 W2       415      TIP3     OH2      OT      -0.834000       15.9994           0
      1244 W2       415      TIP3     H1       HT       0.417000       1.00800           0
      1245 W2       415      TIP3     H2       HT       0.417000       1.00800           0
      1246 W2       416      TIP3     OH2      OT      -0.834000       15.9994           0
      1247 W2       416      TIP3     H1       HT       0.417000       1.00800           0
      1248 W2       416      TIP3     H2       HT       0.417000       1.00800           0
      1249 W2       417      TIP3     OH2      OT      -0.834000       15.9994           0
      1250 W2       417      TIP3     H1       HT       0.417000       1.00800           0
      1251 W2       417      TIP3     H2       HT       0.417000       1.00800           0
      1252 W2       418      TIP3     OH2      OT      -0.834000       15.9994           0
      1253 W2       418      TIP3     H1       HT       0.417000       1.00800           0
      1254 W2       418      TIP3     H2       HT       0.417000       1.00800           0
      1255 W2       419      TIP3     OH2      OT      -0.834000       15.9994           0
      1256 W2       419      TIP3     H1       HT       0.417000       1.00800           0
      1257 W2       419      TIP3     H2       HT       0.417000       1.00800           0
      1258 W2       420      TIP3     OH2      OT      -0.834000       15.9994           0
      1259 W2       420      TIP3     H1       HT       0.417000       1.00800           0
      1260 W2       420      TIP3     H2       HT       0.417000       1.00800           0
      1261 W2       421      TIP3     OH2      OT      -0.834000       15.9994           0
      1262 W2       421      TIP3     H1       HT       0.417000       1.00800           0
      1263 W2       421      TIP3     H2       HT       0.417000       1.00800           0
      1264 W2       422      TIP3     OH2      OT      -0.834000       15.9994           0
      1265 W2       422      TIP3     H1       HT       0.417000       1.00800           0
      1266 W2       422      TIP3     H2       HT       0.417000       1.00800           0
      1267 W2       423      TIP3     OH2      OT      -0.834000       15.9994           0
      1268 W2       423      TIP3     H1       HT       0.417000       1.00800           0
      1269 W2       423      TIP3     H2       HT       0.417000       1.00800           0
      1270 W2       424      TIP3     OH2      OT      -0.834000       15.9994           0
      1271 W2       424      TIP3     H1       HT       0.417000       1.00800           0
      1272 W2       424      TIP3     H2       HT       0.417000       1.00800           0
      1273 W2       425      TIP3     OH2      OT      -0.834000       15.9994           0
      1274 W2       425      TIP3     H1       HT       0.417000       1.00800           0
      1275 W2       425      TIP3     H2       HT       0.417000       1.00800           0
      1276 W2       426      TIP3     OH2      OT      -0.834000       15.9994           0
      1277 W2       426      TIP3     H1       HT       0.417000       1.00800           0
      1278 W2       426      TIP3     H2       HT       0.417000       1.00800           0
      1279 W2       427      TIP3     OH2      OT      -0.834000       15.9994           0
      1280 W2       427      TIP3     H1       HT       0.417000       1.00800           0
      1281 W2       427      TIP3     H2       HT       0.417000       1.00800           0
      1282 W2       428      TIP3     OH2      OT      -0.834000       15.9994           0
      1283 W2       428      TIP3     H1       HT       0.417000       1.00800           0
      1284 W2       428      TIP3     H2       HT       0.417000       1.00800           0
      1285 W2       429      TIP3     OH2      OT      -0.834000       15.9994           0
      1286 W2       429      TIP3     H1       HT       0.417000       1.00800           0
      1287 W2       429      TIP3     H2       HT       0.417000       1.00800           0
      1288 W2       430      TIP3     OH2      OT      -0.834000       15.9994           0
      1289 W2       430      TIP3     H1       HT       0.417000       1.00800           0
      1290 W2       430      TIP3     H2       HT       0.417000       1.00800           0
      1291 W2       431      TIP3     OH2      OT      -0.834000       15.9994           0
      1292 W2       431      TIP3     H1       HT       0.417000       1.00800           0
      1293 W2       431      TIP3     H2       HT       0.417000       1.00800           0
      1294 W2       432      TIP3     OH2      OT      -0.834000       15.9994           0
      1295 W2       432      TIP3     H1       HT       0.417000       1.00800           0
      1296 W2       432      TIP3     H2       HT       0.417000       1.00800           0
      1297 W2       433      TIP3     OH2      OT      -0.834000       15.9994           0
      1298 W2       433      TIP3     H1       HT       0.417000       1.00800           0
      1299 W2       433      TIP3     H2       HT       0.417000       1.00800           0
      1300 W2       434      TIP3     OH2      OT      -0.834000       15.9994           0
      1301 W2       434      TIP3     H1       HT       0.417000       1.00800           0
      1302 W2       434      TIP3     H2       HT       0.417000       1.00800           0
      1303 W2       435      TIP3     OH2      OT      -0.834000       15.9994           0
      1304 W2       435      TIP3     H1       HT       0.417000       1.00800           0
      1305 W2       435      TIP3     H2       HT       0.417000       1.00800           0
      1306 W2       436      TIP3     OH2      OT      -0.834000       15.9994           0
      1307 W2       436      TIP3     H1       HT       0.417000       1.00800           0
      1308 W2       436      TIP3     H2       HT       0.417000       1.00800           0
      1309 W2       437      TIP3     OH2      OT      -0.834000       15.9994           0
      1310 W2       437      TIP3     H1       HT       0.417000       1.00800           0
      1311 W2       437      TIP3     H2       HT       0.417000       1.00800           0
      1312 W2       438      TIP3     OH2      OT      -0.834000       15.9994           0
      1313 W2       438      TIP3     H1       HT       0.417000       1.00800           0
      1314 W2       438      TIP3     H2       HT       0.417000       1.00800           0
      1315 W2       439      TIP3     OH2      OT      -0.834000       15.9994           0
      1316 W2       439      TIP3     H1       HT       0.417000       1.00800           0
      1317 W2       439      TIP3     H2       HT       0.417000       1.00800           0
      1318 W2       440      TIP3     OH2      OT      -0.834000       15.9994           0
      1319 W2       440      TIP3     H1       HT       0.417000       1.00800           0
      1320 W2       440      TIP3     H2       HT       0.417000       1.00800           0
      1321 W2       441      TIP3     OH2      OT      -0.834000       15.9994           0
      1322 W2       441      TIP3     H1       HT       0.417000       1.00800           0
      1323 W2       441      TIP3     H2       HT       0.417000       1.00800           0
      1324 W2       442      TIP3     OH2      OT      -0.834000       15.9994           0
      1325 W2       442      TIP3     H1       HT       0.417000       1.00800           0
      1326 W2       442      TIP3     H2       HT       0.417000       1.00800           0
      1327 W2       443      TIP3     OH2      OT      -0.834000       15.9994           0
      1328 W2       443      TIP3     H1       HT       0.417000       1.00800           0
      1329 W2       443      TIP3     H2       HT       0.417000       1.00800           0
      1330 W2       444      TIP3     OH2      OT      -0.834000       15.9994           0
      1331 W2       444      TIP3     H1       HT       0.417000       1.00800           0
      1332 W2       444      TIP3     H2       HT       0.417000       1.00800           0
      1333 W2       445      TIP3     OH2      OT      -0.834000       15.9994           0
      1334 W2       445      TIP3     H1       HT       0.417000       1.00800           0
      1335 W2       445      TIP3     H2       HT       0.417000       1.00800           0
      1336 W2       446      TIP3     OH2      OT      -0.834000       15.9994           0
      1337 W2       446      TIP3     H1       HT       0.417000       1.00800           0
      1338 W2       446      TIP3     H2       HT       0.417000       1.00800           0
      1339 W2       447      TIP3     OH2      OT      -0.834000       15.9994           0
      1340 W2       447      TIP3     H1       HT       0.417000       1.00800           0
      1341 W2       447      TIP3     H2       HT       0.417000       1.00800           0
      1342 W2       448      TIP3     OH2      OT      -0.834000       15.9994           0
      1343 W2       448      TIP3     H1       HT       0.417000       1.00800           0
      1344 W2       448      TIP3     H2       HT       0.417000       1.00800           0
      1345 W2       449      TIP3     OH2      OT      -0.834000       15.9994           0
      1346 W2       449      TIP3     H1       HT       0.417000       1.00800           0
      1347 W2       449      TIP3     H2       HT       0.417000       1.00800           0
      1348 W2       450      TIP3     OH2      OT      -0.834000       15.9994           0
      1349 W2       450      TIP3     H1       HT       0.417000       1.00800           0
      1350 W2       450      TIP3     H2       HT       0.417000       1.00800           0
      1351 W2       451      TIP3     OH2      OT      -0.834000       15.9994           0
      1352 W2       451      TIP3     H1       HT       0.417000       1.00800           0
      1353 W2       451      TIP3     H2       HT       0.417000       1.00800           0
      1354 W2       452      TIP3     OH2      OT      -0.834000       15.9994           0
      1355 W2       452      TIP3     H1       HT       0.417000       1.00800           0
      1356 W2       452      TIP3     H2       HT       0.417000       1.00800           0
      1357 W2       453      TIP3     OH2      OT      -0.834000       15.9994           0
      1358 W2       453      TIP3     H1       HT       0.417000       1.00800           0
      1359 W2       453      TIP3     H2       HT       0.417000       1.00800           0
      1360 W2       454      TIP3     OH2      OT      -0.834000       15.9994           0
      1361 W2       454      TIP3     H1       HT       0.417000       1.00800           0
      1362 W2       454      TIP3     H2       HT       0.417000       1.00800           0
      1363 W2       455      TIP3     OH2      OT      -0.834000       15.9994           0
      1364 W2       455      TIP3     H1       HT       0.417000       1.00800           0
      1365 W2       455      TIP3     H2       HT       0.417000       1.00800           0
      1366 W2       456      TIP3     OH2      OT      -0.834000       15.9994           0
      1367 W2       456      TIP3     H1       HT       0.417000       1.00800           0
      1368 W2       456      TIP3     H2       HT       0.417000       1.00800           0
      1369 W2       457      TIP3     OH2      OT      -0.834000       15.9994           0
      1370 W2       457      TIP3     H1       HT       0.417000       1.00800           0
      1371 W2       457      TIP3     H2       HT       0.417000       1.00800           0
      1372 W2       458      TIP3     OH2      OT      -0.834000       15.9994           0
      1373 W2       458      TIP3     H1       HT       0.417000       1.00800           0
      1374 W2       458      TIP3     H2       HT       0.417000       1.00800           0
      1375 W2       459      TIP3     OH2      OT      -0.834000       15.9994           0
      1376 W2       459      TIP3     H1       HT       0.417000       1.00800           0
      1377 W2       459      TIP3     H2       HT       0.417000       1.00800           0
      1378 W2       460      TIP3     OH2      OT      -0.834000       15.9994           0
      1379 W2       460      TIP3     H1       HT       0.417000       1.00800           0
      1380 W2       460      TIP3     H2       HT       0.417000       1.00800           0
      1381 W2       461      TIP3     OH2      OT      -0.834000       15.9994           0
      1382 W2       461      TIP3     H1       HT       0.417000       1.00800           0
      1383 W2       461      TIP3     H2       HT       0.417000       1.00800           0
      1384 W2       462      TIP3     OH2      OT      -0.834000       15.9994           0
      1385 W2       462      TIP3     H1       HT       0.417000       1.00800           0
      1386 W2       462      TIP3     H2       HT       0.417000       1.00800           0
      1387 W2       463      TIP3     OH2      OT      -0.834000       15.9994           0
      1388 W2       463      TIP3     H1       HT       0.417000       1.00800           0
      1389 W2       463      TIP3     H2       HT       0.417000       1.00800           0
      1390 W2       464      TIP3     OH2      OT      -0.834000       15.9994           0
      1391 W2       464      TIP3     H1       HT       0.417000       1.00800           0
      1392 W2       464      TIP3     H2       HT       0.417000       1.00800           0
      1393 W2       465      TIP3     OH2      OT      -0.834000       15.9994           0
      1394 W2       465      TIP3     H1       HT       0.417000       1.00800           0
      1395 W2       465      TIP3     H2       HT       0.417000       1.00800           0
      1396 W2       466      TIP3     OH2      OT      -0.834000       15.9994           0
      1397 W2       466      TIP3     H1       HT       0.417000       1.00800           0
      1398 W2       466      TIP3     H2       HT       0.417000       1.00800           0
      1399 W2       467      TIP3     OH2      OT      -0.834000       15.9994           0
      1400 W2       467      TIP3     H1       HT       0.417000       1.00800           0
      1401 W2       467      TIP3     H2       HT       0.417000       1.00800           0
      1402 W2       468      TIP3     OH2      OT      -0.834000       15.9994           0
      1403 W2       468      TIP3     H1       HT       0.417000       1.00800           0
      1404 W2       468      TIP3     H2       HT       0.417000       1.00800           0
      1405 W2       469      TIP3     OH2      OT      -0.834000       15.9994           0
      1406 W2       469      TIP3     H1       HT       0.417000       1.00800           0
      1407 W2       469      TIP3     H2       HT       0.417000       1.00800           0
      1408 W2       470      TIP3     OH2      OT      -0.834000       15.9994           0
      1409 W2       470      TIP3     H1       HT       0.417000       1.00800           0
      1410 W2       470      TIP3     H2       HT       0.417000       1.00800           0
      1411 W2       471      TIP3     OH2      OT      -0.834000       15.9994           0
      1412 W2       471      TIP3     H1       HT       0.417000       1.00800           0
      1413 W2       471      TIP3     H2       HT       0.417000       1.00800           0
      1414 W2       472      TIP3     OH2      OT      -0.834000       15.9994           0
      1415 W2       472      TIP3     H1       HT       0.417000       1.00800           0
      1416 W2       472      TIP3     H2       HT       0.417000       1.00800           0
      1417 W2       473      TIP3     OH2      OT      -0.834000       15.9994           0
      1418 W2       473      TIP3     H1       HT       0.417000       1.00800           0
      1419 W2       473      TIP3     H2       HT       0.417000       1.00800           0
      1420 W2       474      TIP3     OH2      OT      -0.834000       15.9994           0
      1421 W2       474      TIP3     H1       HT       0.417000       1.00800           0
      1422 W2       474      TIP3     H2       HT       0.417000       1.00800           0
      1423 W2       475      TIP3     OH2      OT      -0.834000       15.9994           0
      1424 W2       475      TIP3     H1       HT       0.417000       1.00800           0
      1425 W2       475      TIP3     H2       HT       0.417000       1.00800           0
      1426 W2       476      TIP3     OH2      OT      -0.834000       15.9994           0
      1427 W2       476      TIP3     H1       HT       0.417000       1.00800           0
      1428 W2       476      TIP3     H2       HT       0.417000       1.00800           0
      1429 W2       477      TIP3     OH2      OT      -0.834000       15.9994           0
      1430 W2       477      TIP3     H1       HT       0.417000       1.00800           0
      1431 W2       477      TIP3     H2       HT       0.417000       1.00800           0
      1432 W2       478      TIP3     OH2      OT      -0.834000       15.9994           0
      1433 W2       478      TIP3     H1       HT       0.417000       1.00800           0
      1434 W2       478      TIP3     H2       HT       0.417000       1.00800           0
      1435 W2       479      TIP3     OH2      OT      -0.834000       15.9994           0
      1436 W2       479      TIP3     H1       HT       0.417000       1.00800           0
      1437 W2       479      TIP3     H2       HT       0.417000       1.00800           0
      1438 W2       480      TIP3     OH2      OT      -0.834000       15.9994           0
      1439 W2       480      TIP3     H1       HT       0.417000       1.00800           0
      1440 W2       480      TIP3     H2       HT       0.417000       1.00800           0
      1441 W2       481      TIP3     OH2      OT      -0.834000       15.9994           0
      1442 W2       481      TIP3     H1       HT       0.417000       1.00800           0
      1443 W2       481      TIP3     H2       HT       0.417000       1.00800           0
      1444 W2       482      TIP3     OH2      OT      -0.834000       15.9994           0
      1445 W2       482      TIP3     H1       HT       0.417000       1.00800           0
      1446 W2       482      TIP3     H2       HT       0.417000       1.00800           0
      1447 W2       483      TIP3     OH2      OT      -0.834000       15.9994           0
      1448 W2       483      TIP3     H1       HT       0.417000       1.00800           0
      1449 W2       483      TIP3     H2       HT       0.417000       1.00800           0
      1450 W2       484      TIP3     OH2      OT      -0.834000       15.9994           0
      1451 W2       484      TIP3     H1       HT       0.417000       1.00800           0
      1452 W2       484      TIP3     H2       HT       0.417000       1.00800           0
      1453 W2       485      TIP3     OH2      OT      -0.834000       15.9994           0
      1454 W2       485      TIP3     H1       HT       0.417000       1.00800           0
      1455 W2       485      TIP3     H2       HT       0.417000       1.00800           0
      1456 W2       486      TIP3     OH2      OT      -0.834000       15.9994           0
      1457 W2       486      TIP3     H1       HT       0.417000       1.00800           0
      1458 W2       486      TIP3     H2       HT       0.417000       1.00800           0
      1459 W2       487      TIP3     OH2      OT      -0.834000       15.9994           0
      1460 W2       487      TIP3     H1       HT       0.417000       1.00800           0
      1461 W2       487      TIP3     H2       HT       0.417000       1.00800           0
      1462 W2       488      TIP3     OH2      OT      -0.834000       15.9994           0
      1463 W2       488      TIP3     H1       HT       0.417000       1.00800           0
      1464 W2       488      TIP3     H2       HT       0.417000       1.00800           0
      1465 W2       489      TIP3     OH2      OT      -0.834000       15.9994           0
      1466 W2       489      TIP3     H1       HT       0.417000       1.00800           0
      1467 W2       489      TIP3     H2       HT       0.417000       1.00800           0
      1468 W2       490      TIP3     OH2      OT      -0.834000       15.9994           0
      1469 W2       490      TIP3     H1       HT       0.417000       1.00800           0
      1470 W2       490      TIP3     H2       HT       0.417000       1.00800           0
      1471 W2       491      TIP3     OH2      OT      -0.834000       15.9994           0
      1472 W2       491      TIP3     H1       HT       0.417000       1.00800           0
      1473 W2       491      TIP3     H2       HT       0.417000       1.00800           0
      1474 W2       492      TIP3     OH2      OT      -0.834000       15.9994           0
      1475 W2       492      TIP3     H1       HT       0.417000       1.00800           0
      1476 W2       492      TIP3     H2       HT       0.417000       1.00800           0
      1477 W2       493      TIP3     OH2      OT      -0.834000       15.9994           0
      1478 W2       493      TIP3     H1       HT       0.417000       1.00800           0
      1479 W2       493      TIP3     H2       HT       0.417000       1.00800           0
      1480 W2       494      TIP3     OH2      OT      -0.834000       15.9994           0
      1481 W2       494      TIP3     H1       HT       0.417000       1.00800           0
      1482 W2       494      TIP3     H2       HT       0.417000       1.00800           0
      1483 W2       495      TIP3     OH2      OT      -0.834000       15.9994           0
      1484 W2       495      TIP3     H1       HT       0.417000       1.00800           0
      1485 W2       495      TIP3     H2       HT       0.417000       1.00800           0
      1486 W2       496      TIP3     OH2      OT      -0.834000       15.9994           0
      1487 W2       496      TIP3     H1       HT       0.417000       1.00800           0
      1488 W2       496      TIP3     H2       HT       0.417000       1.00800           0
      1489 W2       497      TIP3     OH2      OT      -0.834000       15.9994           0
      1490 W2       497      TIP3     H1       HT       0.417000       1.00800           0
      1491 W2       497      TIP3     H2       HT       0.417000       1.00800           0
      1492 W2       498      TIP3     OH2      OT      -0.834000       15.9994           0
      1493 W2       498      TIP3     H1       HT       0.417000       1.00800           0
      1494 W2       498      TIP3     H2       HT       0.417000       1.00800           0
      1495 W2       499      TIP3     OH2      OT      -0.834000       15.9994           0
      1496 W2       499      TIP3     H1       HT       0.417000       1.00800           0
      1497 W2       499      TIP3     H2       HT       0.417000       1.00800           0
      1498 W2       500      TIP3     OH2      OT      -0.834000       15.9994           0
      1499 W2       500      TIP3     H1       HT       0.417000       1.00800           0
      1500 W2       500      TIP3     H2       HT       0.417000       1.00800           0
      1501 W2       501      TIP3     OH2      OT      -0.834000       15.9994           0
      1502 W2       501      TIP3     H1       HT       0.417000       1.00800           0
      1503 W2       501      TIP3     H2       HT       0.417000       1.00800           0
      1504 W2       502      TIP3     OH2      OT      -0.834000       15.9994           0
      1505 W2       502      TIP3     H1       HT       0.417000       1.00800           0
      1506 W2       502      TIP3     H2       HT       0.417000       1.00800           0
      1507 W2       503      TIP3     OH2      OT      -0.834000       15.9994           0
      1508 W2       503      TIP3     H1       HT       0.417000       1.00800           0
      1509 W2       503      TIP3     H2       HT       0.417000       1.00800           0
      1510 W2       504      TIP3     OH2      OT      -0.834000       15.9994           0
      1511 W2       504      TIP3     H1       HT       0.417000       1.00800           0
      1512 W2       504      TIP3     H2       HT       0.417000       1.00800           0
      1513 W2       505      TIP3     OH2      OT      -0.834000       15.9994           0
      1514 W2       505      TIP3     H1       HT       0.417000       1.00800           0
      1515 W2       505      TIP3     H2       HT       0.417000       1.00800           0
      1516 W2       506      TIP3     OH2      OT      -0.834000       15.9994           0
      1517 W2       506      TIP3     H1       HT       0.417000       1.00800           0
      1518 W2       506      TIP3     H2       HT       0.417000       1.00800           0
      1519 W2       507      TIP3     OH2      OT      -0.834000       15.9994           0
      1520 W2       507      TIP3     H1       HT       0.417000       1.00800           0
      1521 W2       507      TIP3     H2       HT       0.417000       1.00800           0
      1522 W2       508      TIP3     OH2      OT      -0.834000       15.9994           0
      1523 W2       508      TIP3     H1       HT       0.417000       1.00800           0
      1524 W2       508      TIP3     H2       HT       0.417000       1.00800           0
      1525 W2       509      TIP3     OH2      OT      -0.834000       15.9994           0
      1526 W2       509      TIP3     H1       HT       0.417000       1.00800           0
      1527 W2       509      TIP3     H2       HT       0.417000       1.00800           0
      1528 W2       510      TIP3     OH2      OT      -0.834000       15.9994           0
      1529 W2       510      TIP3     H1       HT       0.417000       1.00800           0
      1530 W2       510      TIP3     H2       HT       0.417000       1.00800           0
      1531 W2       511      TIP3     OH2      OT      -0.834000       15.9994           0
      1532 W2       511      TIP3     H1       HT       0.417000       1.00800           0
      1533 W2       511      TIP3     H2       HT       0.417000       1.00800           0
      1534 W2       512      TIP3     OH2      OT      -0.834000       15.9994           0
      1535 W2       512      TIP3     H1       HT       0.417000       1.00800           0
      1536 W2       512      TIP3     H2       HT       0.417000       1.00800           0
      1537 W2       513      TIP3     OH2      OT      -0.834000       15.9994           0
      1538 W2       513      TIP3     H1       HT       0.417000       1.00800           0
      1539 W2       513      TIP3     H2       HT       0.417000       1.00800           0
      1540 W2       514      TIP3     OH2      OT      -0.834000       15.9994           0
      1541 W2       514      TIP3     H1       HT       0.417000       1.00800           0
      1542 W2       514      TIP3     H2       HT       0.417000       1.00800           0
      1543 W2       515      TIP3     OH2      OT      -0.834000       15.9994           0
      1544 W2       515      TIP3     H1       HT       0.417000       1.00800           0
      1545 W2       515      TIP3     H2       HT       0.417000       1.00800           0
      1546 W2       516      TIP3     OH2      OT      -0.834000       15.9994           0
      1547 W2       516      TIP3     H1       HT       0.417000       1.00800           0
      1548 W2       516      TIP3     H2       HT       0.417000       1.00800           0
      1549 W2       517      TIP3     OH2      OT      -0.834000       15.9994           0
      1550 W2       517      TIP3     H1       HT       0.417000       1.00800           0
      1551 W2       517      TIP3     H2       HT       0.417000       1.00800           0
      1552 W2       518      TIP3     OH2      OT      -0.834000       15.9994           0
      1553 W2       518      TIP3     H1       HT       0.417000       1.00800           0
      1554 W2       518      TIP3     H2       HT       0.417000       1.00800           0
      1555 W2       519      TIP3     OH2      OT      -0.834000       15.9994           0
      1556 W2       519      TIP3     H1       HT       0.417000       1.00800           0
      1557 W2       519      TIP3     H2       HT       0.417000       1.00800           0
      1558 W2       520      TIP3     OH2      OT      -0.834000       15.9994           0
      1559 W2       520      TIP3     H1       HT       0.417000       1.00800           0
      1560 W2       520      TIP3     H2       HT       0.417000       1.00800           0
      1561 W2       521      TIP3     OH2      OT      -0.834000       15.9994           0
      1562 W2       521      TIP3     H1       HT       0.417000       1.00800           0
      1563 W2       521      TIP3     H2       HT       0.417000       1.00800           0
      1564 W2       522      TIP3     OH2      OT      -0.834000       15.9994           0
      1565 W2       522      TIP3     H1       HT       0.417000       1.00800           0
      1566 W2       522      TIP3     H2       HT       0.417000       1.00800           0
      1567 W2       523      TIP3     OH2      OT      -0.834000       15.9994           0
      1568 W2       523      TIP3     H1       HT       0.417000       1.00800           0
      1569 W2       523      TIP3     H2       HT       0.417000       1.00800           0
      1570 W2       524      TIP3     OH2      OT      -0.834000       15.9994           0
      1571 W2       524      TIP3     H1       HT       0.417000       1.00800           0
      1572 W2       524      TIP3     H2       HT       0.417000       1.00800           0
      1573 W2       525      TIP3     OH2      OT      -0.834000       15.9994           0
      1574 W2       525      TIP3     H1       HT       0.417000       1.00800           0
      1575 W2       525      TIP3     H2       HT       0.417000       1.00800           0
      1576 W2       526      TIP3     OH2      OT      -0.834000       15.9994           0
      1577 W2       526      TIP3     H1       HT       0.417000       1.00800           0
      1578 W2       526      TIP3     H2       HT       0.417000       1.00800           0
      1579 W2       527      TIP3     OH2      OT      -0.834000       15.9994           0
      1580 W2       527      TIP3     H1       HT       0.417000       1.00800           0
      1581 W2       527      TIP3     H2       HT       0.417000       1.00800           0
      1582 W2       528      TIP3     OH2      OT      -0.834000       15.9994           0
      1583 W2       528      TIP3     H1       HT       0.417000       1.00800           0
      1584 W2       528      TIP3     H2       HT       0.417000       1.00800           0
      1585 W2       529      TIP3     OH2      OT      -0.834000       15.9994           0
      1586 W2       529      TIP3     H1       HT       0.417000       1.00800           0
      1587 W2       529      TIP3     H2       HT       0.417000       1.00800           0
      1588 W2       530      TIP3     OH2      OT      -0.834000       15.9994           0
      1589 W2       530      TIP3     H1       HT       0.417000       1.00800           0
      1590 W2       530      TIP3     H2       HT       0.417000       1.00800           0
      1591 W2       531      TIP3     OH2      OT      -0.834000       15.9994           0
      1592 W2       531      TIP3     H1       HT       0.417000       1.00800           0
      1593 W2       531      TIP3     H2       HT       0.417000       1.00800           0
      1594 W2       532      TIP3     OH2      OT      -0.834000       15.9994           0
      1595 W2       532      TIP3     H1       HT       0.417000       1.00800           0
      1596 W2       532      TIP3     H2       HT       0.417000       1.00800           0
      1597 W2       533      TIP3     OH2      OT      -0.834000       15.9994           0
      1598 W2       533      TIP3     H1       HT       0.417000       1.00800           0
      1599 W2       533      TIP3     H2       HT       0.417000       1.00800           0
      1600 W2       534      TIP3     OH2      OT      -0.834000       15.9994           0
      1601 W2       534      TIP3     H1       HT       0.417000       1.00800           0
      1602 W2       534      TIP3     H2       HT       0.417000       1.00800           0
      1603 W2       535      TIP3     OH2      OT      -0.834000       15.9994           0
      1604 W2       535      TIP3     H1       HT       0.417000       1.00800           0
      1605 W2       535      TIP3     H2       HT       0.417000       1.00800           0
      1606 W2       536      TIP3     OH2      OT      -0.834000       15.9994           0
      1607 W2       536      TIP3     H1       HT       0.417000       1.00800           0
      1608 W2       536      TIP3     H2       HT       0.417000       1.00800           0
      1609 W2       537      TIP3     OH2      OT      -0.834000       15.9994           0
      1610 W2       537      TIP3     H1       HT       0.417000       1.00800           0
      1611 W2       537      TIP3     H2       HT       0.417000       1.00800           0
      1612 W2       538      TIP3     OH2      OT      -0.834000       15.9994           0
      1613 W2       538      TIP3     H1       HT       0.417000       1.00800           0
      1614 W2       538      TIP3     H2       HT       0.417000       1.00800           0
      1615 W2       539      TIP3     OH2      OT      -0.834000       15.9994           0
      1616 W2       539      TIP3     H1       HT       0.417000       1.00800           0
      1617 W2       539      TIP3     H2       HT       0.417000       1.00800           0
      1618 W2       540      TIP3     OH2      OT      -0.834000       15.9994           0
      1619 W2       540      TIP3     H1       HT       0.417000       1.00800           0
      1620 W2       540      TIP3     H2       HT       0.417000       1.00800           0
      1621 W2       541      TIP3     OH2      OT      -0.834000       15.9994           0
      1622 W2       541      TIP3     H1       HT       0.417000       1.00800           0
      1623 W2       541      TIP3     H2       HT       0.417000       1.00800           0
      1624 W2       542      TIP3     OH2      OT      -0.834000       15.9994           0
      1625 W2       542      TIP3     H1       HT       0.417000       1.00800           0
      1626 W2       542      TIP3     H2       HT       0.417000       1.00800           0
      1627 W2       543      TIP3     OH2      OT      -0.834000       15.9994           0
      1628 W2       543      TIP3     H1       HT       0.417000       1.00800           0
      1629 W2       543      TIP3     H2       HT       0.417000       1.00800           0
      1630 W2       544      TIP3     OH2      OT      -0.834000       15.9994           0
      1631 W2       544      TIP3     H1       HT       0.417000       1.00800           0
      1632 W2       544      TIP3     H2       HT       0.417000       1.00800           0
      1633 W2       545      TIP3     OH2      OT      -0.834000       15.9994           0
      1634 W2       545      TIP3     H1       HT       0.417000       1.00800           0
      1635 W2       545      TIP3     H2       HT       0.417000       1.00800           0
      1636 W2       546      TIP3     OH2      OT      -0.834000       15.9994           0
      1637 W2       546      TIP3     H1       HT       0.417000       1.00800           0
      1638 W2       546      TIP3     H2       HT       0.417000       1.00800           0
      1639 W2       547      TIP3     OH2      OT      -0.834000       15.9994           0
      1640 W2       547      TIP3     H1       HT       0.417000       1.00800           0
      1641 W2       547      TIP3     H2       HT       0.417000       1.00800           0
      1642 W2       548      TIP3     OH2      OT      -0.834000       15.9994           0
      1643 W2       548      TIP3     H1       HT       0.417000       1.00800           0
      1644 W2       548      TIP3     H2       HT       0.417000       1.00800           0
      1645 W2       549      TIP3     OH2      OT      -0.834000       15.9994           0
      1646 W2       549      TIP3     H1       HT       0.417000       1.00800           0
      1647 W2       549      TIP3     H2       HT       0.417000       1.00800           0
      1648 W2       550      TIP3     OH2      OT      -0.834000       15.9994           0
      1649 W2       550      TIP3     H1       HT       0.417000       1.00800           0
      1650 W2       550      TIP3     H2       HT       0.417000       1.00800           0
      1651 W2       551      TIP3     OH2      OT      -0.834000       15.9994           0
      1652 W2       551      TIP3     H1       HT       0.417000       1.00800           0
      1653 W2       551      TIP3     H2       HT       0.417000       1.00800           0
      1654 W2       552      TIP3     OH2      OT      -0.834000       15.9994           0
      1655 W2       552      TIP3     H1       HT       0.417000       1.00800           0
      1656 W2       552      TIP3     H2       HT       0.417000       1.00800           0
      1657 W2       553      TIP3     OH2      OT      -0.834000       15.9994           0
      1658 W2       553      TIP3     H1       HT       0.417000       1.00800           0
      1659 W2       553      TIP3     H2       HT       0.417000       1.00800           0
      1660 W2       554      TIP3     OH2      OT      -0.834000       15.9994           0
      1661 W2       554      TIP3     H1       HT       0.417000       1.00800           0
      1662 W2       554      TIP3     H2       HT       0.417000       1.00800           0
      1663 W2       555      TIP3     OH2      OT      -0.834000       15.9994           0
      1664 W2       555      TIP3     H1       HT       0.417000       1.00800           0
      1665 W2       555      TIP3     H2       HT       0.417000       1.00800           0
      1666 W2       556      TIP3     OH2      OT      -0.834000       15.9994           0
      1667 W2       556      TIP3     H1       HT       0.417000       1.00800           0
      1668 W2       556      TIP3     H2       HT       0.417000       1.00800           0
      1669 W2       557      TIP3     OH2      OT      -0.834000       15.9994           0
      1670 W2       557      TIP3     H1       HT       0.417000       1.00800           0
      1671 W2       557      TIP3     H2       HT       0.417000       1.00800           0
      1672 W2       558      TIP3     OH2      OT      -0.834000       15.9994           0
      1673 W2       558      TIP3     H1       HT       0.417000       1.00800           0
      1674 W2       558      TIP3     H2       HT       0.417000       1.00800           0
      1675 W2       559      TIP3     OH2      OT      -0.834000       15.9994           0
      1676 W2       559      TIP3     H1       HT       0.417000       1.00800           0
      1677 W2       559      TIP3     H2       HT       0.417000       1.00800           0
      1678 W2       560      TIP3     OH2      OT      -0.834000       15.9994           0
      1679 W2       560      TIP3     H1       HT       0.417000       1.00800           0
      1680 W2       560      TIP3     H2       HT       0.417000       1.00800           0
      1681 W2       561      TIP3     OH2      OT      -0.834000       15.9994           0
      1682 W2       561      TIP3     H1       HT       0.417000       1.00800           0
      1683 W2       561      TIP3     H2       HT       0.417000       1.00800           0
      1684 W2       562      TIP3     OH2      OT      -0.834000       15.9994           0
      1685 W2       562      TIP3     H1       HT       0.417000       1.00800           0
      1686 W2       562      TIP3     H2       HT       0.417000       1.00800           0
      1687 W2       563      TIP3     OH2      OT      -0.834000       15.9994           0
      1688 W2       563      TIP3     H1       HT       0.417000       1.00800           0
      1689 W2       563      TIP3     H2       HT       0.417000       1.00800           0
      1690 W2       564      TIP3     OH2      OT      -0.834000       15.9994           0
      1691 W2       564      TIP3     H1       HT       0.417000       1.00800           0
      1692 W2       564      TIP3     H2       HT       0.417000       1.00800           0
      1693 W2       565      TIP3     OH2      OT      -0.834000       15.9994           0
      1694 W2       565      TIP3     H1       HT       0.417000       1.00800           0
      1695 W2       565      TIP3     H2       HT       0.417000       1.00800           0
      1696 W2       566      TIP3     OH2      OT      -0.834000       15.9994           0
      1697 W2       566      TIP3     H1       HT       0.417000       1.00800           0
      1698 W2       566      TIP3     H2       HT       0.417000       1.00800           0
      1699 W2       567      TIP3     OH2      OT      -0.834000       15.9994           0
      1700 W2       567      TIP3     H1       HT       0.417000       1.00800           0
      1701 W2       567      TIP3     H2       HT       0.417000       1.00800           0
      1702 W2       568      TIP3     OH2      OT      -0.834000       15.9994           0
      1703 W2       568      TIP3     H1       HT       0.417000       1.00800           0
      1704 W2       568      TIP3     H2       HT       0.417000       1.00800           0
      1705 W2       569      TIP3     OH2      OT      -0.834000       15.9994           0
      1706 W2       569      TIP3     H1       HT       0.417000       1.00800           0
      1707 W2       569      TIP3     H2       HT       0.417000       1.00800           0
      1708 W2       570      TIP3     OH2      OT      -0.834000       15.9994           0
      1709 W2       570      TIP3     H1       HT       0.417000       1.00800           0
      1710 W2       570      TIP3     H2       HT       0.417000       1.00800           0
      1711 W2       571      TIP3     OH2      OT      -0.834000       15.9994           0
      1712 W2       571      TIP3     H1       HT       0.417000       1.00800           0
      1713 W2       571      TIP3     H2       HT       0.417000       1.00800           0
      1714 W2       572      TIP3     OH2      OT      -0.834000       15.9994           0
      1715 W2       572      TIP3     H1       HT       0.417000       1.00800           0
      1716 W2       572      TIP3     H2       HT       0.417000       1.00800           0
      1717 W2       573      TIP3     OH2      OT      -0.834000       15.9994           0
      1718 W2       573      TIP3     H1       HT       0.417000       1.00800           0
      1719 W2       573      TIP3     H2       HT       0.417000       1.00800           0
      1720 W2       574      TIP3     OH2      OT      -0.834000       15.9994           0
      1721 W2       574      TIP3     H1       HT       0.417000       1.00800           0
      1722 W2       574      TIP3     H2       HT       0.417000       1.00800           0
      1723 W2       575      TIP3     OH2      OT      -0.834000       15.9994           0
      1724 W2       575      TIP3     H1       HT       0.417000       1.00800           0
      1725 W2       575      TIP3     H2       HT       0.417000       1.00800           0
      1726 W2       576      TIP3     OH2      OT      -0.834000       15.9994           0
      1727 W2       576      TIP3     H1       HT       0.417000       1.00800           0
      1728 W2       576      TIP3     H2       HT       0.417000       1.00800           0
      1729 W2       577      TIP3     OH2      OT      -0.834000       15.9994           0
      1730 W2       577      TIP3     H1       HT       0.417000       1.00800           0
      1731 W2       577      TIP3     H2       HT       0.417000       1.00800           0
      1732 W2       578      TIP3     OH2      OT      -0.834000       15.9994           0
      1733 W2       578      TIP3     H1       HT       0.417000       1.00800           0
      1734 W2       578      TIP3     H2       HT       0.417000       1.00800           0
      1735 W2       579      TIP3     OH2      OT      -0.834000       15.9994           0
      1736 W2       579      TIP3     H1       HT       0.417000       1.00800           0
      1737 W2       579      TIP3     H2       HT       0.417000       1.00800           0
      1738 W2       580      TIP3     OH2      OT      -0.834000       15.9994           0
      1739 W2       580      TIP3     H1       HT       0.417000       1.00800           0
      1740 W2       580      TIP3     H2       HT       0.417000       1.00800           0
      1741 W2       581      TIP3     OH2      OT      -0.834000       15.9994           0
      1742 W2       581      TIP3     H1       HT       0.417000       1.00800           0
      1743 W2       581      TIP3     H2       HT       0.417000       1.00800           0
      1744 W2       582      TIP3     OH2      OT      -0.834000       15.9994           0
      1745 W2       582      TIP3     H1       HT       0.417000       1.00800           0
      1746 W2       582      TIP3     H2       HT       0.417000       1.00800           0
      1747 W2       583      TIP3     OH2      OT      -0.834000       15.9994           0
      1748 W2       583      TIP3     H1       HT       0.417000       1.00800           0
      1749 W2       583      TIP3     H2       HT       0.417000       1.00800           0
      1750 W2       584      TIP3     OH2      OT      -0.834000       15.9994           0
      1751 W2       584      TIP3     H1       HT       0.417000       1.00800           0
      1752 W2       584      TIP3     H2       HT       0.417000       1.00800           0
      1753 W2       585      TIP3     OH2      OT      -0.834000       15.9994           0
      1754 W2       585      TIP3     H1       HT       0.417000       1.00800           0
      1755 W2       585      TIP3     H2       HT       0.417000       1.00800           0
      1756 W2       586      TIP3     OH2      OT      -0.834000       15.9994           0
      1757 W2       586      TIP3     H1       HT       0.417000       1.00800           0
      1758 W2       586      TIP3     H2       HT       0.417000       1.00800           0
      1759 W2       587      TIP3     OH2      OT      -0.834000       15.9994           0
      1760 W2       587      TIP3     H1       HT       0.417000       1.00800           0
      1761 W2       587      TIP3     H2       HT       0.417000       1.00800           0
      1762 W2       588      TIP3     OH2      OT      -0.834000       15.9994           0
      1763 W2       588      TIP3     H1       HT       0.417000       1.00800           0
      1764 W2       588      TIP3     H2       HT       0.417000       1.00800           0
      1765 W2       589      TIP3     OH2      OT      -0.834000       15.9994           0
      1766 W2       589      TIP3     H1       HT       0.417000       1.00800           0
      1767 W2       589      TIP3     H2       HT       0.417000       1.00800           0
      1768 W2       590      TIP3     OH2      OT      -0.834000       15.9994           0
      1769 W2       590      TIP3     H1       HT       0.417000       1.00800           0
      1770 W2       590      TIP3     H2       HT       0.417000       1.00800           0
      1771 W2       591      TIP3     OH2      OT      -0.834000       15.9994           0
      1772 W2       591      TIP3     H1       HT       0.417000       1.00800           0
      1773 W2       591      TIP3     H2       HT       0.417000       1.00800           0
      1774 W2       592      TIP3     OH2      OT      -0.834000       15.9994           0
      1775 W2       592      TIP3     H1       HT       0.417000       1.00800           0
      1776 W2       592      TIP3     H2       HT       0.417000       1.00800           0
      1777 W2       593      TIP3     OH2      OT      -0.834000       15.9994           0
      1778 W2       593      TIP3     H1       HT       0.417000       1.00800           0
      1779 W2       593      TIP3     H2       HT       0.417000       1.00800           0
      1780 W2       594      TIP3     OH2      OT      -0.834000       15.9994           0
      1781 W2       594      TIP3     H1       HT       0.417000       1.00800           0
      1782 W2       594      TIP3     H2       HT       0.417000       1.00800           0
      1783 W2       595      TIP3     OH2      OT      -0.834000       15.9994           0
      1784 W2       595      TIP3     H1       HT       0.417000       1.00800           0
      1785 W2       595      TIP3     H2       HT       0.417000       1.00800           0
      1786 W2       596      TIP3     OH2      OT      -0.834000       15.9994           0
      1787 W2       596      TIP3     H1       HT       0.417000       1.00800           0
      1788 W2       596      TIP3     H2       HT       0.417000       1.00800           0
      1789 W2       597      TIP3     OH2      OT      -0.834000       15.9994           0
      1790 W2       597      TIP3     H1       HT       0.417000       1.00800           0
      1791 W2       597      TIP3     H2       HT       0.417000       1.00800           0
      1792 W2       598      TIP3     OH2      OT      -0.834000       15.9994           0
      1793 W2       598      TIP3     H1       HT       0.417000       1.00800           0
      1794 W2       598      TIP3     H2       HT       0.417000       1.00800           0
      1795 W2       599      TIP3     OH2      OT      -0.834000       15.9994           0
      1796 W2       599      TIP3     H1       HT       0.417000       1.00800           0
      1797 W2       599      TIP3     H2       HT       0.417000       1.00800           0
      1798 W2       600      TIP3     OH2      OT      -0.834000       15.9994           0
      1799 W2       600      TIP3     H1       HT       0.417000       1.00800           0
      1800 W2       600      TIP3     H2       HT       0.417000       1.00800           0
      1801 W2       601      TIP3     OH2      OT      -0.834000       15.9994           0
      1802 W2       601      TIP3     H1       HT       0.417000       1.00800           0
      1803 W2       601      TIP3     H2       HT       0.417000       1.00800           0
      1804 W2       602      TIP3     OH2      OT      -0.834000       15.9994           0
      1805 W2       602      TIP3     H1       HT       0.417000       1.00800           0
      1806 W2       602      TIP3     H2       HT       0.417000       1.00800           0
      1807 W2       603      TIP3     OH2      OT      -0.834000       15.9994           0
      1808 W2       603      TIP3     H1       HT       0.417000       1.00800           0
      1809 W2       603      TIP3     H2       HT       0.417000       1.00800           0
      1810 W2       604      TIP3     OH2      OT      -0.834000       15.9994           0
      1811 W2       604      TIP3     H1       HT       0.417000       1.00800           0
      1812 W2       604      TIP3     H2       HT       0.417000       1.00800           0
      1813 W2       605      TIP3     OH2      OT      -0.834000       15.9994           0
      1814 W2       605      TIP3     H1       HT       0.417000       1.00800           0
      1815 W2       605      TIP3     H2       HT       0.417000       1.00800           0
      1816 W2       606      TIP3     OH2      OT      -0.834000       15.9994           0
      1817 W2       606      TIP3     H1       HT       0.417000       1.00800           0
      1818 W2       606      TIP3     H2       HT       0.417000       1.00800           0
      1819 W2       607      TIP3     OH2      OT      -0.834000       15.9994           0
      1820 W2       607      TIP3     H1       HT       0.417000       1.00800           0
      1821 W2       607      TIP3     H2       HT       0.417000       1.00800           0
      1822 W2       608      TIP3     OH2      OT      -0.834000       15.9994           0
      1823 W2       608      TIP3     H1       HT       0.417000       1.00800           0
      1824 W2       608      TIP3     H2       HT       0.417000       1.00800           0
      1825 W2       609      TIP3     OH2      OT      -0.834000       15.9994           0
      1826 W2       609      TIP3     H1       HT       0.417000       1.00800           0
      1827 W2       609      TIP3     H2       HT       0.417000       1.00800           0
      1828 W2       610      TIP3     OH2      OT      -0.834000       15.9994           0
      1829 W2       610      TIP3     H1       HT       0.417000       1.00800           0
      1830 W2       610      TIP3     H2       HT       0.417000       1.00800           0
      1831 W2       611      TIP3     OH2      OT      -0.834000       15.9994           0
      1832 W2       611      TIP3     H1       HT       0.417000       1.00800           0
      1833 W2       611      TIP3     H2       HT       0.417000       1.00800           0
      1834 W2       612      TIP3     OH2      OT      -0.834000       15.9994           0
      1835 W2       612      TIP3     H1       HT       0.417000       1.00800           0
      1836 W2       612      TIP3     H2       HT       0.417000       1.00800           0
      1837 W2       613      TIP3     OH2      OT      -0.834000       15.9994           0
      1838 W2       613      TIP3     H1       HT       0.417000       1.00800           0
      1839 W2       613      TIP3     H2       HT       0.417000       1.00800           0
      1840 W2       614      TIP3     OH2      OT      -0.834000       15.9994           0
      1841 W2       614      TIP3     H1       HT       0.417000       1.00800           0
      1842 W2       614      TIP3     H2       HT       0.417000       1.00800           0
      1843 W2       615      TIP3     OH2      OT      -0.834000       15.9994           0
      1844 W2       615      TIP3     H1       HT       0.417000       1.00800           0
      1845 W2       615      TIP3     H2       HT       0.417000       1.00800           0
      1846 W2       616      TIP3     OH2      OT      -0.834000       15.9994           0
      1847 W2       616      TIP3     H1       HT       0.417000       1.00800           0
      1848 W2       616      TIP3     H2       HT       0.417000       1.00800           0
      1849 W2       617      TIP3     OH2      OT      -0.834000       15.9994           0
      1850 W2       617      TIP3     H1       HT       0.417000       1.00800           0
      1851 W2       617      TIP3     H2       HT       0.417000       1.00800           0
      1852 W2       618      TIP3     OH2      OT      -0.834000       15.9994           0
      1853 W2       618      TIP3     H1       HT       0.417000       1.00800           0
      1854 W2       618      TIP3     H2       HT       0.417000       1.00800           0
      1855 W2       619      TIP3     OH2      OT      -0.834000       15.9994           0
      1856 W2       619      TIP3     H1       HT       0.417000       1.00800           0
      1857 W2       619      TIP3     H2       HT       0.417000       1.00800           0
      1858 W2       620      TIP3     OH2      OT      -0.834000       15.9994           0
      1859 W2       620      TIP3     H1       HT       0.417000       1.00800           0
      1860 W2       620      TIP3     H2       HT       0.417000       1.00800           0
      1861 W2       621      TIP3     OH2      OT      -0.834000       15.9994           0
      1862 W2       621      TIP3     H1       HT       0.417000       1.00800           0
      1863 W2       621      TIP3     H2       HT       0.417000       1.00800           0
      1864 W2       622      TIP3     OH2      OT      -0.834000       15.9994           0
      1865 W2       622      TIP3     H1       HT       0.417000       1.00800           0
      1866 W2       622      TIP3     H2       HT       0.417000       1.00800           0
      1867 W2       623      TIP3     OH2      OT      -0.834000       15.9994           0
      1868 W2       623      TIP3     H1       HT       0.417000       1.00800           0
      1869 W2       623      TIP3     H2       HT       0.417000       1.00800           0
      1870 W2       624      TIP3     OH2      OT      -0.834000       15.9994           0
      1871 W2       624      TIP3     H1       HT       0.417000       1.00800           0
      1872 W2       624      TIP3     H2       HT       0.417000       1.00800           0
      1873 W2       625      TIP3     OH2      OT      -0.834000       15.9994           0
      1874 W2       625      TIP3     H1       HT       0.417000       1.00800           0
      1875 W2       625      TIP3     H2       HT       0.417000       1.00800           0
      1876 W2       626      TIP3     OH2      OT      -0.834000       15.9994           0
      1877 W2       626      TIP3     H1       HT       0.417000       1.00800           0
      1878 W2       626      TIP3     H2       HT       0.417000       1.00800           0
      1879 W2       627      TIP3     OH2      OT      -0.834000       15.9994           0
      1880 W2       627      TIP3     H1       HT       0.417000       1.00800           0
      1881 W2       627      TIP3     H2       HT       0.417000       1.00800           0
      1882 W2       628      TIP3     OH2      OT      -0.834000       15.9994           0
      1883 W2       628      TIP3     H1       HT       0.417000       1.00800           0
      1884 W2       628      TIP3     H2       HT       0.417000       1.00800           0
      1885 W2       629      TIP3     OH2      OT      -0.834000       15.9994           0
      1886 W2       629      TIP3     H1       HT       0.417000       1.00800           0
      1887 W2       629      TIP3     H2       HT       0.417000       1.00800           0
      1888 W2       630      TIP3     OH2      OT      -0.834000       15.9994           0
      1889 W2       630      TIP3     H1       HT       0.417000       1.00800           0
      1890 W2       630      TIP3     H2       HT       0.417000       1.00800           0
      1891 W2       631      TIP3     OH2      OT      -0.834000       15.9994           0
      1892 W2       631      TIP3     H1       HT       0.417000       1.00800           0
      1893 W2       631      TIP3     H2       HT       0.417000       1.00800           0
      1894 W2       632      TIP3     OH2      OT      -0.834000       15.9994           0
      1895 W2       632      TIP3     H1       HT       0.417000       1.00800           0
      1896 W2       632      TIP3     H2       HT       0.417000       1.00800           0
      1897 W2       633      TIP3     OH2      OT      -0.834000       15.9994           0
      1898 W2       633      TIP3     H1       HT       0.417000       1.00800           0
      1899 W2       633      TIP3     H2       HT       0.417000       1.00800           0
      1900 W2       634      TIP3     OH2      OT      -0.834000       15.9994           0
      1901 W2       634      TIP3     H1       HT       0.417000       1.00800           0
      1902 W2       634      TIP3     H2       HT       0.417000       1.00800           0
      1903 W2       635      TIP3     OH2      OT      -0.834000       15.9994           0
      1904 W2       635      TIP3     H1       HT       0.417000       1.00800           0
      1905 W2       635      TIP3     H2       HT       0.417000       1.00800           0
      1906 W2       636      TIP3     OH2      OT      -0.834000       15.9994           0
      1907 W2       636      TIP3     H1       HT       0.417000       1.00800           0
      1908 W2       636      TIP3     H2       HT       0.417000       1.00800           0
      1909 W2       637      TIP3     OH2      OT      -0.834000       15.9994           0
      1910 W2       637      TIP3     H1       HT       0.417000       1.00800           0
      1911 W2       637      TIP3     H2       HT       0.417000       1.00800           0
      1912 W2       638      TIP3     OH2      OT      -0.834000       15.9994           0
      1913 W2       638      TIP3     H1       HT       0.417000       1.00800           0
      1914 W2       638      TIP3     H2       HT       0.417000       1.00800           0
      1915 W2       639      TIP3     OH2      OT      -0.834000       15.9994           0
      1916 W2       639      TIP3     H1       HT       0.417000       1.00800           0
      1917 W2       639      TIP3     H2       HT       0.417000       1.00800           0
      1918 W2       640      TIP3     OH2      OT      -0.834000       15.9994           0
      1919 W2       640      TIP3     H1       HT       0.417000       1.00800           0
      1920 W2       640      TIP3     H2       HT       0.417000       1.00800           0
      1921 W2       641      TIP3     OH2      OT      -0.834000       15.9994           0
      1922 W2       641      TIP3     H1       HT       0.417000       1.00800           0
      1923 W2       641      TIP3     H2       HT       0.417000       1.00800           0
      1924 W2       642      TIP3     OH2      OT      -0.834000       15.9994           0
      1925 W2       642      TIP3     H1       HT       0.417000       1.00800           0
      1926 W2       642      TIP3     H2       HT       0.417000       1.00800           0
      1927 W2       643      TIP3     OH2      OT      -0.834000       15.9994           0
      1928 W2       643      TIP3     H1       HT       0.417000       1.00800           0
      1929 W2       643      TIP3     H2       HT       0.417000       1.00800           0
      1930 W2       644      TIP3     OH2      OT      -0.834000       15.9994           0
      1931 W2       644      TIP3     H1       HT       0.417000       1.00800           0
      1932 W2       644      TIP3     H2       HT       0.417000       1.00800           0
      1933 W2       645      TIP3     OH2      OT      -0.834000       15.9994           0
      1934 W2       645      TIP3     H1       HT       0.417000       1.00800           0
      1935 W2       645      TIP3     H2       HT       0.417000       1.00800           0
      1936 W2       646      TIP3     OH2      OT      -0.834000       15.9994           0
      1937 W2       646      TIP3     H1       HT       0.417000       1.00800           0
      1938 W2       646      TIP3     H2       HT       0.417000       1.00800           0
      1939 W2       647      TIP3     OH2      OT      -0.834000       15.9994           0
      1940 W2       647      TIP3     H1       HT       0.417000       1.00800           0
      1941 W2       647      TIP3     H2       HT       0.417000       1.00800           0
      1942 W2       648      TIP3     OH2      OT      -0.834000       15.9994           0
      1943 W2       648      TIP3     H1       HT       0.417000       1.00800           0
      1944 W2       648      TIP3     H2       HT       0.417000       1.00800           0
      1945 W2       649      TIP3     OH2      OT      -0.834000       15.9994           0
      1946 W2       649      TIP3     H1       HT       0.417000       1.00800           0
      1947 W2       649      TIP3     H2       HT       0.417000       1.00800           0
      1948 W2       650      TIP3     OH2      OT      -0.834000       15.9994           0
      1949 W2       650      TIP3     H1       HT       0.417000       1.00800           0
      1950 W2       650      TIP3     H2       HT       0.417000       1.00800           0
      1951 W2       651      TIP3     OH2      OT      -0.834000       15.9994           0
      1952 W2       651      TIP3     H1       HT       0.417000       1.00800           0
      1953 W2       651      TIP3     H2       HT       0.417000       1.00800           0
      1954 W2       652      TIP3     OH2      OT      -0.834000       15.9994           0
      1955 W2       652      TIP3     H1       HT       0.417000       1.00800           0
      1956 W2       652      TIP3     H2       HT       0.417000       1.00800           0
      1957 W2       653      TIP3     OH2      OT      -0.834000       15.9994           0
      1958 W2       653      TIP3     H1       HT       0.417000       1.00800           0
      1959 W2       653      TIP3     H2       HT       0.417000       1.00800           0
      1960 W2       654      TIP3     OH2      OT      -0.834000       15.9994           0
      1961 W2       654      TIP3     H1       HT       0.417000       1.00800           0
      1962 W2       654      TIP3     H2       HT       0.417000       1.00800           0
      1963 W2       655      TIP3     OH2      OT      -0.834000       15.9994           0
      1964 W2       655      TIP3     H1       HT       0.417000       1.00800           0
      1965 W2       655      TIP3     H2       HT       0.417000       1.00800           0
      1966 W2       656      TIP3     OH2      OT      -0.834000       15.9994           0
      1967 W2       656      TIP3     H1       HT       0.417000       1.00800           0
      1968 W2       656      TIP3     H2       HT       0.417000       1.00800           0
      1969 W2       657      TIP3     OH2      OT      -0.834000       15.9994           0
      1970 W2       657      TIP3     H1       HT       0.417000       1.00800           0
      1971 W2       657      TIP3     H2       HT       0.417000       1.00800           0
      1972 W2       658      TIP3     OH2      OT      -0.834000       15.9994           0
      1973 W2       658      TIP3     H1       HT       0.417000       1.00800           0
      1974 W2       658      TIP3     H2       HT       0.417000       1.00800           0
      1975 W2       659      TIP3     OH2      OT      -0.834000       15.9994           0
      1976 W2       659      TIP3     H1       HT       0.417000       1.00800           0
      1977 W2       659      TIP3     H2       HT       0.417000       1.00800           0
      1978 W2       660      TIP3     OH2      OT      -0.834000       15.9994           0
      1979 W2       660      TIP3     H1       HT       0.417000       1.00800           0
      1980 W2       660      TIP3     H2       HT       0.417000       1.00800           0
      1981 W2       661      TIP3     OH2      OT      -0.834000       15.9994           0
      1982 W2       661      TIP3     H1       HT       0.417000       1.00800           0
      1983 W2       661      TIP3     H2       HT       0.417000       1.00800           0
      1984 W2       662      TIP3     OH2      OT      -0.834000       15.9994           0
      1985 W2       662      TIP3     H1       HT       0.417000       1.00800           0
      1986 W2       662      TIP3     H2       HT       0.417000       1.00800           0
      1987 W2       663      TIP3     OH2      OT      -0.834000       15.9994           0
      1988 W2       663      TIP3     H1       HT       0.417000       1.00800           0
      1989 W2       663      TIP3     H2       HT       0.417000       1.00800           0
      1990 W2       664      TIP3     OH2      OT      -0.834000       15.9994           0
      1991 W2       664      TIP3     H1       HT       0.417000       1.00800           0
      1992 W2       664      TIP3     H2       HT       0.417000       1.00800           0
      1993 W2       665      TIP3     OH2      OT      -0.834000       15.9994           0
      1994 W2       665      TIP3     H1       HT       0.417000       1.00800           0
      1995 W2       665      TIP3     H2       HT       0.417000       1.00800           0
      1996 W2       666      TIP3     OH2      OT      -0.834000       15.9994           0
      1997 W2       666      TIP3     H1       HT       0.417000       1.00800           0
      1998 W2       666      TIP3     H2       HT       0.417000       1.00800           0
      1999 W2       667      TIP3     OH2      OT      -0.834000       15.9994           0
      2000 W2       667      TIP3     H1       HT       0.417000       1.00800           0
      2001 W2       667      TIP3     H2       HT       0.417000       1.00800           0
      2002 W2       668      TIP3     OH2      OT      -0.834000       15.9994           0
      2003 W2       668      TIP3     H1       HT       0.417000       1.00800           0
      2004 W2       668      TIP3     H2       HT       0.417000       1.00800           0
      2005 W2       669      TIP3     OH2      OT      -0.834000       15.9994           0
      2006 W2       669      TIP3     H1       HT       0.417000       1.00800           0
      2007 W2       669      TIP3     H2       HT       0.417000       1.00800           0
      2008 W2       670      TIP3     OH2      OT      -0.834000       15.9994           0
      2009 W2       670      TIP3     H1       HT       0.417000       1.00800           0
      2010 W2       670      TIP3     H2       HT       0.417000       1.00800           0
      2011 W2       671      TIP3     OH2      OT      -0.834000       15.9994           0
      2012 W2       671      TIP3     H1       HT       0.417000       1.00800           0
      2013 W2       671      TIP3     H2       HT       0.417000       1.00800           0
      2014 W2       672      TIP3     OH2      OT      -0.834000       15.9994           0
      2015 W2       672      TIP3     H1       HT       0.417000       1.00800           0
      2016 W2       672      TIP3     H2       HT       0.417000       1.00800           0
      2017 W2       673      TIP3     OH2      OT      -0.834000       15.9994           0
      2018 W2       673      TIP3     H1       HT       0.417000       1.00800           0
      2019 W2       673      TIP3     H2       HT       0.417000       1.00800           0
      2020 W2       674      TIP3     OH2      OT      -0.834000       15.9994           0
      2021 W2       674      TIP3     H1       HT       0.417000       1.00800           0
      2022 W2       674      TIP3     H2       HT       0.417000       1.00800           0
      2023 W2       675      TIP3     OH2      OT      -0.834000       15.9994           0
      2024 W2       675      TIP3     H1       HT       0.417000       1.00800           0
      2025 W2       675      TIP3     H2       HT       0.417000       1.00800           0
      2026 W2       676      TIP3     OH2      OT      -0.834000       15.9994           0
      2027 W2       676      TIP3     H1       HT       0.417000       1.00800           0
      2028 W2       676      TIP3     H2       HT       0.417000       1.00800           0
      2029 W2       677      TIP3     OH2      OT      -0.834000       15.9994           0
      2030 W2       677      TIP3     H1       HT       0.417000       1.00800           0
      2031 W2       677      TIP3     H2       HT       0.417000       1.00800           0
      2032 W2       678      TIP3     OH2      OT      -0.834000       15.9994           0
      2033 W2       678      TIP3     H1       HT       0.417000       1.00800           0
      2034 W2       678      TIP3     H2       HT       0.417000       1.00800           0
      2035 W2       679      TIP3     OH2      OT      -0.834000       15.9994           0
      2036 W2       679      TIP3     H1       HT       0.417000       1.00800           0
      2037 W2       679      TIP3     H2       HT       0.417000       1.00800           0
      2038 W2       680      TIP3     OH2      OT      -0.834000       15.9994           0
      2039 W2       680      TIP3     H1       HT       0.417000       1.00800           0
      2040 W2       680      TIP3     H2       HT       0.417000       1.00800           0
      2041 W2       681      TIP3     OH2      OT      -0.834000       15.9994           0
      2042 W2       681      TIP3     H1       HT       0.417000       1.00800           0
      2043 W2       681      TIP3     H2       HT       0.417000       1.00800           0
      2044 W2       682      TIP3     OH2      OT      -0.834000       15.9994           0
      2045 W2       682      TIP3     H1       HT       0.417000       1.00800           0
      2046 W2       682      TIP3     H2       HT       0.417000       1.00800           0
      2047 W2       683      TIP3     OH2      OT      -0.834000       15.9994           0
      2048 W2       683      TIP3     H1       HT       0.417000       1.00800           0
      2049 W2       683      TIP3     H2       HT       0.417000       1.00800           0
      2050 W2       684      TIP3     OH2      OT      -0.834000       15.9994           0
      2051 W2       684      TIP3     H1       HT       0.417000       1.00800           0
      2052 W2       684      TIP3     H2       HT       0.417000       1.00800           0
      2053 W2       685      TIP3     OH2      OT      -0.834000       15.9994           0
      2054 W2       685      TIP3     H1       HT       0.417000       1.00800           0
      2055 W2       685      TIP3     H2       HT       0.417000       1.00800           0
      2056 W2       686      TIP3     OH2      OT      -0.834000       15.9994           0
      2057 W2       686      TIP3     H1       HT       0.417000       1.00800           0
      2058 W2       686      TIP3     H2       HT       0.417000       1.00800           0
      2059 W2       687      TIP3     OH2      OT      -0.834000       15.9994           0
      2060 W2       687      TIP3     H1       HT       0.417000       1.00800           0
      2061 W2       687      TIP3     H2       HT       0.417000       1.00800           0
      2062 W2       688      TIP3     OH2      OT      -0.834000       15.9994           0
      2063 W2       688      TIP3     H1       HT       0.417000       1.00800           0
      2064 W2       688      TIP3     H2       HT       0.417000       1.00800           0
      2065 W2       689      TIP3     OH2      OT      -0.834000       15.9994           0
      2066 W2       689      TIP3     H1       HT       0.417000       1.00800           0
      2067 W2       689      TIP3     H2       HT       0.417000       1.00800           0
      2068 W2       690      TIP3     OH2      OT      -0.834000       15.9994           0
      2069 W2       690      TIP3     H1       HT       0.417000       1.00800           0
      2070 W2       690      TIP3     H2       HT       0.417000       1.00800           0
      2071 W2       691      TIP3     OH2      OT      -0.834000       15.9994           0
      2072 W2       691      TIP3     H1       HT       0.417000       1.00800           0
      2073 W2       691      TIP3     H2       HT       0.417000       1.00800           0
      2074 W2       692      TIP3     OH2      OT      -0.834000       15.9994           0
      2075 W2       692      TIP3     H1       HT       0.417000       1.00800           0
      2076 W2       692      TIP3     H2       HT       0.417000       1.00800           0
      2077 W2       693      TIP3     OH2      OT      -0.834000       15.9994           0
      2078 W2       693      TIP3     H1       HT       0.417000       1.00800           0
      2079 W2       693      TIP3     H2       HT       0.417000       1.00800           0
      2080 W2       694      TIP3     OH2      OT      -0.834000       15.9994           0
      2081 W2       694      TIP3     H1       HT       0.417000       1.00800           0
      2082 W2       694      TIP3     H2       HT       0.417000       1.00800           0
      2083 W2       695      TIP3     OH2      OT      -0.834000       15.9994           0
      2084 W2       695      TIP3     H1       HT       0.417000       1.00800           0
      2085 W2       695      TIP3     H2       HT       0.417000       1.00800           0
      2086 W2       696      TIP3     OH2      OT      -0.834000       15.9994           0
      2087 W2       696      TIP3     H1       HT       0.417000       1.00800           0
      2088 W2       696      TIP3     H2       HT       0.417000       1.00800           0
      2089 W2       697      TIP3     OH2      OT      -0.834000       15.9994           0
      2090 W2       697      TIP3     H1       HT       0.417000       1.00800           0
      2091 W2       697      TIP3     H2       HT       0.417000       1.00800           0
      2092 W2       698      TIP3     OH2      OT      -0.834000       15.9994           0
      2093 W2       698      TIP3     H1       HT       0.417000       1.00800           0
      2094 W2       698      TIP3     H2       HT       0.417000       1.00800           0
      2095 W2       699      TIP3     OH2      OT      -0.834000       15.9994           0
      2096 W2       699      TIP3     H1       HT       0.417000       1.00800           0
      2097 W2       699      TIP3     H2       HT       0.417000       1.00800           0
      2098 W2       700      TIP3     OH2      OT      -0.834000       15.9994           0
      2099 W2       700      TIP3     H1       HT       0.417000       1.00800           0
      2100 W2       700      TIP3     H2       HT       0.417000       1.00800           0
      2101 W2       701      TIP3     OH2      OT      -0.834000       15.9994           0
      2102 W2       701      TIP3     H1       HT       0.417000       1.00800           0
      2103 W2       701      TIP3     H2       HT       0.417000       1.00800           0
      2104 W2       702      TIP3     OH2      OT      -0.834000       15.9994           0
      2105 W2       702      TIP3     H1       HT       0.417000       1.00800           0
      2106 W2       702      TIP3     H2       HT       0.417000       1.00800           0
      2107 W2       703      TIP3     OH2      OT      -0.834000       15.9994           0
      2108 W2       703      TIP3     H1       HT       0.417000       1.00800           0
      2109 W2       703      TIP3     H2       HT       0.417000       1.00800           0
      2110 W2       704      TIP3     OH2      OT      -0.834000       15.9994           0
      2111 W2       704      TIP3     H1       HT       0.417000       1.00800           0
      2112 W2       704      TIP3     H2       HT       0.417000       1.00800           0
      2113 W2       705      TIP3     OH2      OT      -0.834000       15.9994           0
      2114 W2       705      TIP3     H1       HT       0.417000       1.00800           0
      2115 W2       705      TIP3     H2       HT       0.417000       1.00800           0
      2116 W2       706      TIP3     OH2      OT      -0.834000       15.9994           0
      2117 W2       706      TIP3     H1       HT       0.417000       1.00800           0
      2118 W2       706      TIP3     H2       HT       0.417000       1.00800           0
      2119 W2       707      TIP3     OH2      OT      -0.834000       15.9994           0
      2120 W2       707      TIP3     H1       HT       0.417000       1.00800           0
      2121 W2       707      TIP3     H2       HT       0.417000       1.00800           0
      2122 W2       708      TIP3     OH2      OT      -0.834000       15.9994           0
      2123 W2       708      TIP3     H1       HT       0.417000       1.00800           0
      2124 W2       708      TIP3     H2       HT       0.417000       1.00800           0
      2125 W2       709      TIP3     OH2      OT      -0.834000       15.9994           0
      2126 W2       709      TIP3     H1       HT       0.417000       1.00800           0
      2127 W2       709      TIP3     H2       HT       0.417000       1.00800           0
      2128 W2       710      TIP3     OH2      OT      -0.834000       15.9994           0
      2129 W2       710      TIP3     H1       HT       0.417000       1.00800           0
      2130 W2       710      TIP3     H2       HT       0.417000       1.00800           0
      2131 W2       711      TIP3     OH2      OT      -0.834000       15.9994           0
      2132 W2       711      TIP3     H1       HT       0.417000       1.00800           0
      2133 W2       711      TIP3     H2       HT       0.417000       1.00800           0
      2134 W2       712      TIP3     OH2      OT      -0.834000       15.9994           0
      2135 W2       712      TIP3     H1       HT       0.417000       1.00800           0
      2136 W2       712      TIP3     H2       HT       0.417000       1.00800           0
      2137 W2       713      TIP3     OH2      OT      -0.834000       15.9994           0
      2138 W2       713      TIP3     H1       HT       0.417000       1.00800           0
      2139 W2       713      TIP3     H2       HT       0.417000       1.00800           0
      2140 W2       714      TIP3     OH2      OT      -0.834000       15.9994           0
      2141 W2       714      TIP3     H1       HT       0.417000       1.00800           0
      2142 W2       714      TIP3     H2       HT       0.417000       1.00800           0
      2143 W2       715      TIP3     OH2      OT      -0.834000       15.9994           0
      2144 W2       715      TIP3     H1       HT       0.417000       1.00800           0
      2145 W2       715      TIP3     H2       HT       0.417000       1.00800           0
      2146 W2       716      TIP3     OH2      OT      -0.834000       15.9994           0
      2147 W2       716      TIP3     H1       HT       0.417000       1.00800           0
      2148 W2       716      TIP3     H2       HT       0.417000       1.00800           0
      2149 W2       717      TIP3     OH2      OT      -0.834000       15.9994           0
      2150 W2       717      TIP3     H1       HT       0.417000       1.00800           0
      2151 W2       717      TIP3     H2       HT       0.417000       1.00800           0
      2152 W2       718      TIP3     OH2      OT      -0.834000       15.9994           0
      2153 W2       718      TIP3     H1       HT       0.417000       1.00800           0
      2154 W2       718      TIP3     H2       HT       0.417000       1.00800           0
      2155 W2       719      TIP3     OH2      OT      -0.834000       15.9994           0
      2156 W2       719      TIP3     H1       HT       0.417000       1.00800           0
      2157 W2       719      TIP3     H2       HT       0.417000       1.00800           0
      2158 W2       720      TIP3     OH2      OT      -0.834000       15.9994           0
      2159 W2       720      TIP3     H1       HT       0.417000       1.00800           0
      2160 W2       720      TIP3     H2       HT       0.417000       1.00800           0
      2161 W2       721      TIP3     OH2      OT      -0.834000       15.9994           0
      2162 W2       721      TIP3     H1       HT       0.417000       1.00800           0
      2163 W2       721      TIP3     H2       HT       0.417000       1.00800           0
      2164 W2       722      TIP3     OH2      OT      -0.834000       15.9994           0
      2165 W2       722      TIP3     H1       HT       0.417000       1.00800           0
      2166 W2       722      TIP3     H2       HT       0.417000       1.00800           0
      2167 W2       723      TIP3     OH2      OT      -0.834000       15.9994           0
      2168 W2       723      TIP3     H1       HT       0.417000       1.00800           0
      2169 W2       723      TIP3     H2       HT       0.417000       1.00800           0
      2170 W2       724      TIP3     OH2      OT      -0.834000       15.9994           0
      2171 W2       724      TIP3     H1       HT       0.417000       1.00800           0
      2172 W2       724      TIP3     H2       HT       0.417000       1.00800           0
      2173 W2       725      TIP3     OH2      OT      -0.834000       15.9994           0
      2174 W2       725      TIP3     H1       HT       0.417000       1.00800           0
      2175 W2       725      TIP3     H2       HT       0.417000       1.00800           0
      2176 W2       726      TIP3     OH2      OT      -0.834000       15.9994           0
      2177 W2       726      TIP3     H1       HT       0.417000       1.00800           0
      2178 W2       726      TIP3     H2       HT       0.417000       1.00800           0
      2179 W2       727      TIP3     OH2      OT      -0.834000       15.9994           0
      2180 W2       727      TIP3     H1       HT       0.417000       1.00800           0
      2181 W2       727      TIP3     H2       HT       0.417000       1.00800           0
      2182 W2       728      TIP3     OH2      OT      -0.834000       15.9994           0
      2183 W2       728      TIP3     H1       HT       0.417000       1.00800           0
      2184 W2       728      TIP3     H2       HT       0.417000       1.00800           0
      2185 W2       729      TIP3     OH2      OT      -0.834000       15.9994           0
      2186 W2       729      TIP3     H1       HT       0.417000       1.00800           0
      2187 W2       729      TIP3     H2       HT       0.417000       1.00800           0
      2188 W2       730      TIP3     OH2      OT      -0.834000       15.9994           0
      2189 W2       730      TIP3     H1       HT       0.417000       1.00800           0
      2190 W2       730      TIP3     H2       HT       0.417000       1.00800           0
      2191 W2       731      TIP3     OH2      OT      -0.834000       15.9994           0
      2192 W2       731      TIP3     H1       HT       0.417000       1.00800           0
      2193 W2       731      TIP3     H2       HT       0.417000       1.00800           0
      2194 W2       732      TIP3     OH2      OT      -0.834000       15.9994           0
      2195 W2       732      TIP3     H1       HT       0.417000       1.00800           0
      2196 W2       732      TIP3     H2       HT       0.417000       1.00800           0
      2197 W2       733      TIP3     OH2      OT      -0.834000       15.9994           0
      2198 W2       733      TIP3     H1       HT       0.417000       1.00800           0
      2199 W2       733      TIP3     H2       HT       0.417000       1.00800           0
      2200 W2       734      TIP3     OH2      OT      -0.834000       15.9994           0
      2201 W2       734      TIP3     H1       HT       0.417000       1.00800           0
      2202 W2       734      TIP3     H2       HT       0.417000       1.00800           0
      2203 W2       735      TIP3     OH2      OT      -0.834000       15.9994           0
      2204 W2       735      TIP3     H1       HT       0.417000       1.00800           0
      2205 W2       735      TIP3     H2       HT       0.417000       1.00800           0
      2206 W2       736      TIP3     OH2      OT      -0.834000       15.9994           0
      2207 W2       736      TIP3     H1       HT       0.417000       1.00800           0
      2208 W2       736      TIP3     H2       HT       0.417000       1.00800           0
      2209 W2       737      TIP3     OH2      OT      -0.834000       15.9994           0
      2210 W2       737      TIP3     H1       HT       0.417000       1.00800           0
      2211 W2       737      TIP3     H2       HT       0.417000       1.00800           0
      2212 W2       738      TIP3     OH2      OT      -0.834000       15.9994           0
      2213 W2       738      TIP3     H1       HT       0.417000       1.00800           0
      2214 W2       738      TIP3     H2       HT       0.417000       1.00800           0
      2215 W2       739      TIP3     OH2      OT      -0.834000       15.9994           0
      2216 W2       739      TIP3     H1       HT       0.417000       1.00800           0
      2217 W2       739      TIP3     H2       HT       0.417000       1.00800           0
      2218 W2       740      TIP3     OH2      OT      -0.834000       15.9994           0
      2219 W2       740      TIP3     H1       HT       0.417000       1.00800           0
      2220 W2       740      TIP3     H2       HT       0.417000       1.00800           0
      2221 W2       741      TIP3     OH2      OT      -0.834000       15.9994           0
      2222 W2       741      TIP3     H1       HT       0.417000       1.00800           0
      2223 W2       741      TIP3     H2       HT       0.417000       1.00800           0
      2224 W2       742      TIP3     OH2      OT      -0.834000       15.9994           0
      2225 W2       742      TIP3     H1       HT       0.417000       1.00800           0
      2226 W2       742      TIP3     H2       HT       0.417000       1.00800           0
      2227 W2       743      TIP3     OH2      OT      -0.834000       15.9994           0
      2228 W2       743      TIP3     H1       HT       0.417000       1.00800           0
      2229 W2       743      TIP3     H2       HT       0.417000       1.00800           0
      2230 W2       744      TIP3     OH2      OT      -0.834000       15.9994           0
      2231 W2       744      TIP3     H1       HT       0.417000       1.00800           0
      2232 W2       744      TIP3     H2       HT       0.417000       1.00800           0
      2233 W2       745      TIP3     OH2      OT      -0.834000       15.9994           0
      2234 W2       745      TIP3     H1       HT       0.417000       1.00800           0
      2235 W2       745      TIP3     H2       HT       0.417000       1.00800           0
      2236 W2       746      TIP3     OH2      OT      -0.834000       15.9994           0
      2237 W2       746      TIP3     H1       HT       0.417000       1.00800           0
      2238 W2       746      TIP3     H2       HT       0.417000       1.00800           0
      2239 W2       747      TIP3     OH2      OT      -0.834000       15.9994           0
      2240 W2       747      TIP3     H1       HT       0.417000       1.00800           0
      2241 W2       747      TIP3     H2       HT       0.417000       1.00800           0
      2242 W2       748      TIP3     OH2      OT      -0.834000       15.9994           0
      2243 W2       748      TIP3     H1       HT       0.417000       1.00800           0
      2244 W2       748      TIP3     H2       HT       0.417000       1.00800           0
      2245 W2       749      TIP3     OH2      OT      -0.834000       15.9994           0
      2246 W2       749      TIP3     H1       HT       0.417000       1.00800           0
      2247 W2       749      TIP3     H2       HT       0.417000       1.00800           0
      2248 W2       750      TIP3     OH2      OT      -0.834000       15.9994           0
      2249 W2       750      TIP3     H1       HT       0.417000       1.00800           0
      2250 W2       750      TIP3     H2       HT       0.417000       1.00800           0
      2251 W2       751      TIP3     OH2      OT      -0.834000       15.9994           0
      2252 W2       751      TIP3     H1       HT       0.417000       1.00800           0
      2253 W2       751      TIP3     H2       HT       0.417000       1.00800           0
      2254 W2       752      TIP3     OH2      OT      -0.834000       15.9994           0
      2255 W2       752      TIP3     H1       HT       0.417000       1.00800           0
      2256 W2       752      TIP3     H2       HT       0.417000       1.00800           0
      2257 W2       753      TIP3     OH2      OT      -0.834000       15.9994           0
      2258 W2       753      TIP3     H1       HT       0.417000       1.00800           0
      2259 W2       753      TIP3     H2       HT       0.417000       1.00800           0
      2260 W2       754      TIP3     OH2      OT      -0.834000       15.9994           0
      2261 W2       754      TIP3     H1       HT       0.417000       1.00800           0
      2262 W2       754      TIP3     H2       HT       0.417000       1.00800           0
      2263 W2       755      TIP3     OH2      OT      -0.834000       15.9994           0
      2264 W2       755      TIP3     H1       HT       0.417000       1.00800           0
      2265 W2       755      TIP3     H2       HT       0.417000       1.00800           0
      2266 W2       756      TIP3     OH2      OT      -0.834000       15.9994           0
      2267 W2       756      TIP3     H1       HT       0.417000       1.00800           0
      2268 W2       756      TIP3     H2       HT       0.417000       1.00800           0
      2269 W2       757      TIP3     OH2      OT      -0.834000       15.9994           0
      2270 W2       757      TIP3     H1       HT       0.417000       1.00800           0
      2271 W2       757      TIP3     H2       HT       0.417000       1.00800           0
      2272 W2       758      TIP3     OH2      OT      -0.834000       15.9994           0
      2273 W2       758      TIP3     H1       HT       0.417000       1.00800           0
      2274 W2       758      TIP3     H2       HT       0.417000       1.00800           0
      2275 W2       759      TIP3     OH2      OT      -0.834000       15.9994           0
      2276 W2       759      TIP3     H1       HT       0.417000       1.00800           0
      2277 W2       759      TIP3     H2       HT       0.417000       1.00800           0
      2278 W2       760      TIP3     OH2      OT      -0.834000       15.9994           0
      2279 W2       760      TIP3     H1       HT       0.417000       1.00800           0
      2280 W2       760      TIP3     H2       HT       0.417000       1.00800           0
      2281 W2       761      TIP3     OH2      OT      -0.834000       15.9994           0
      2282 W2       761      TIP3     H1       HT       0.417000       1.00800           0
      2283 W2       761      TIP3     H2       HT       0.417000       1.00800           0
      2284 W2       762      TIP3     OH2      OT      -0.834000       15.9994           0
      2285 W2       762      TIP3     H1       HT       0.417000       1.00800           0
      2286 W2       762      TIP3     H2       HT       0.417000       1.00800           0
      2287 W2       763      TIP3     OH2      OT      -0.834000       15.9994           0
      2288 W2       763      TIP3     H1       HT       0.417000       1.00800           0
      2289 W2       763      TIP3     H2       HT       0.417000       1.00800           0
      2290 W2       764      TIP3     OH2      OT      -0.834000       15.9994           0
      2291 W2       764      TIP3     H1       HT       0.417000       1.00800           0
      2292 W2       764      TIP3     H2       HT       0.417000       1.00800           0
      2293 W2       765      TIP3     OH2      OT      -0.834000       15.9994           0
      2294 W2       765      TIP3     H1       HT       0.417000       1.00800           0
      2295 W2       765      TIP3     H2       HT       0.417000       1.00800           0
      2296 W2       766      TIP3     OH2      OT      -0.834000       15.9994           0
      2297 W2       766      TIP3     H1       HT       0.417000       1.00800           0
      2298 W2       766      TIP3     H2       HT       0.417000       1.00800           0
      2299 W2       767      TIP3     OH2      OT      -0.834000       15.9994           0
      2300 W2       767      TIP3     H1       HT       0.417000       1.00800           0
      2301 W2       767      TIP3     H2       HT       0.417000       1.00800           0
      2302 W2       768      TIP3     OH2      OT      -0.834000       15.9994           0
      2303 W2       768      TIP3     H1       HT       0.417000       1.00800           0
      2304 W2       768      TIP3     H2       HT       0.417000       1.00800           0
      2305 W2       769      TIP3     OH2      OT      -0.834000       15.9994           0
      2306 W2       769      TIP3     H1       HT       0.417000       1.00800           0
      2307 W2       769      TIP3     H2       HT       0.417000       1.00800           0
      2308 W2       770      TIP3     OH2      OT      -0.834000       15.9994           0
      2309 W2       770      TIP3     H1       HT       0.417000       1.00800           0
      2310 W2       770      TIP3     H2       HT       0.417000       1.00800           0
      2311 W2       771      TIP3     OH2      OT      -0.834000       15.9994           0
      2312 W2       771      TIP3     H1       HT       0.417000       1.00800           0
      2313 W2       771      TIP3     H2       HT       0.417000       1.00800           0
      2314 W2       772      TIP3     OH2      OT      -0.834000       15.9994           0
      2315 W2       772      TIP3     H1       HT       0.417000       1.00800           0
      2316 W2       772      TIP3     H2       HT       0.417000       1.00800           0
      2317 W2       773      TIP3     OH2      OT      -0.834000       15.9994           0
      2318 W2       773      TIP3     H1       HT       0.417000       1.00800           0
      2319 W2       773      TIP3     H2       HT       0.417000       1.00800           0
      2320 W2       774      TIP3     OH2      OT      -0.834000       15.9994           0
      2321 W2       774      TIP3     H1       HT       0.417000       1.00800           0
      2322 W2       774      TIP3     H2       HT       0.417000       1.00800           0
      2323 W2       775      TIP3     OH2      OT      -0.834000       15.9994           0
      2324 W2       775      TIP3     H1       HT       0.417000       1.00800           0
      2325 W2       775      TIP3     H2       HT       0.417000       1.00800           0
      2326 W2       776      TIP3     OH2      OT      -0.834000       15.9994           0
      2327 W2       776      TIP3     H1       HT       0.417000       1.00800           0
      2328 W2       776      TIP3     H2       HT       0.417000       1.00800           0
      2329 W2       777      TIP3     OH2      OT      -0.834000       15.9994           0
      2330 W2       777      TIP3     H1       HT       0.417000       1.00800           0
      2331 W2       777      TIP3     H2       HT       0.417000       1.00800           0
      2332 W2       778      TIP3     OH2      OT      -0.834000       15.9994           0
      2333 W2       778      TIP3     H1       HT       0.417000       1.00800           0
      2334 W2       778      TIP3     H2       HT       0.417000       1.00800           0
      2335 W2       779      TIP3     OH2      OT      -0.834000       15.9994           0
      2336 W2       779      TIP3     H1       HT       0.417000       1.00800           0
      2337 W2       779      TIP3     H2       HT       0.417000       1.00800           0
      2338 W2       780      TIP3     OH2      OT      -0.834000       15.9994           0
      2339 W2       780      TIP3     H1       HT       0.417000       1.00800           0
      2340 W2       780      TIP3     H2       HT       0.417000       1.00800           0
      2341 W2       781      TIP3     OH2      OT      -0.834000       15.9994           0
      2342 W2       781      TIP3     H1       HT       0.417000       1.00800           0
      2343 W2       781      TIP3     H2       HT       0.417000       1.00800           0
      2344 W2       782      TIP3     OH2      OT      -0.834000       15.9994           0
      2345 W2       782      TIP3     H1       HT       0.417000       1.00800           0
      2346 W2       782      TIP3     H2       HT       0.417000       1.00800           0
      2347 W2       783      TIP3     OH2      OT      -0.834000       15.9994           0
      2348 W2       783      TIP3     H1       HT       0.417000       1.00800           0
      2349 W2       783      TIP3     H2       HT       0.417000       1.00800           0
      2350 W2       784      TIP3     OH2      OT      -0.834000       15.9994           0
      2351 W2       784      TIP3     H1       HT       0.417000       1.00800           0
      2352 W2       784      TIP3     H2       HT       0.417000       1.00800           0
      2353 W2       785      TIP3     OH2      OT      -0.834000       15.9994           0
      2354 W2       785      TIP3     H1       HT       0.417000       1.00800           0
      2355 W2       785      TIP3     H2       HT       0.417000       1.00800           0
      2356 W2       786      TIP3     OH2      OT      -0.834000       15.9994           0
      2357 W2       786      TIP3     H1       HT       0.417000       1.00800           0
      2358 W2       786      TIP3     H2       HT       0.417000       1.00800           0
      2359 W2       787      TIP3     OH2      OT      -0.834000       15.9994           0
      2360 W2       787      TIP3     H1       HT       0.417000       1.00800           0
      2361 W2       787      TIP3     H2       HT       0.417000       1.00800           0
      2362 W2       788      TIP3     OH2      OT      -0.834000       15.9994           0
      2363 W2       788      TIP3     H1       HT       0.417000       1.00800           0
      2364 W2       788      TIP3     H2       HT       0.417000       1.00800           0
      2365 W2       789      TIP3     OH2      OT      -0.834000       15.9994           0
      2366 W2       789      TIP3     H1       HT       0.417000       1.00800           0
      2367 W2       789      TIP3     H2       HT       0.417000       1.00800           0
      2368 W2       790      TIP3     OH2      OT      -0.834000       15.9994           0
      2369 W2       790      TIP3     H1       HT       0.417000       1.00800           0
      2370 W2       790      TIP3     H2       HT       0.417000       1.00800           0
      2371 W2       791      TIP3     OH2      OT      -0.834000       15.9994           0
      2372 W2       791      TIP3     H1       HT       0.417000       1.00800           0
      2373 W2       791      TIP3     H2       HT       0.417000       1.00800           0
      2374 W2       792      TIP3     OH2      OT      -0.834000       15.9994           0
      2375 W2       792      TIP3     H1       HT       0.417000       1.00800           0
      2376 W2       792      TIP3     H2       HT       0.417000       1.00800           0
      2377 W2       793      TIP3     OH2      OT      -0.834000       15.9994           0
      2378 W2       793      TIP3     H1       HT       0.417000       1.00800           0
      2379 W2       793      TIP3     H2       HT       0.417000       1.00800           0
      2380 W2       794      TIP3     OH2      OT      -0.834000       15.9994           0
      2381 W2       794      TIP3     H1       HT       0.417000       1.00800           0
      2382 W2       794      TIP3     H2       HT       0.417000       1.00800           0
      2383 W2       795      TIP3     OH2      OT      -0.834000       15.9994           0
      2384 W2       795      TIP3     H1       HT       0.417000       1.00800           0
      2385 W2       795      TIP3     H2       HT       0.417000       1.00800           0
      2386 W2       796      TIP3     OH2      OT      -0.834000       15.9994           0
      2387 W2       796      TIP3     H1       HT       0.417000       1.00800           0
      2388 W2       796      TIP3     H2       HT       0.417000       1.00800           0
      2389 W2       797      TIP3     OH2      OT      -0.834000       15.9994           0
      2390 W2       797      TIP3     H1       HT       0.417000       1.00800           0
      2391 W2       797      TIP3     H2       HT       0.417000       1.00800           0
      2392 W2       798      TIP3     OH2      OT      -0.834000       15.9994           0
      2393 W2       798      TIP3     H1       HT       0.417000       1.00800           0
      2394 W2       798      TIP3     H2       HT       0.417000       1.00800           0
      2395 W2       799      TIP3     OH2      OT      -0.834000       15.9994           0
      2396 W2       799      TIP3     H1       HT       0.417000       1.00800           0
      2397 W2       799      TIP3     H2       HT       0.417000       1.00800           0
      2398 W2       800      TIP3     OH2      OT      -0.834000       15.9994           0
      2399 W2       800      TIP3     H1       HT       0.417000       1.00800           0
      2400 W2       800      TIP3     H2       HT       0.417000       1.00800           0
      2401 W2       801      TIP3     OH2      OT      -0.834000       15.9994           0
      2402 W2       801      TIP3     H1       HT       0.417000       1.00800           0
      2403 W2       801      TIP3     H2       HT       0.417000       1.00800           0
      2404 W2       802      TIP3     OH2      OT      -0.834000       15.9994           0
      2405 W2       802      TIP3     H1       HT       0.417000       1.00800           0
      2406 W2       802      TIP3     H2       HT       0.417000       1.00800           0
      2407 W2       803      TIP3     OH2      OT      -0.834000       15.9994           0
      2408 W2       803      TIP3     H1       HT       0.417000       1.00800           0
      2409 W2       803      TIP3     H2       HT       0.417000       1.00800           0
      2410 W2       804      TIP3     OH2      OT      -0.834000       15.9994           0
      2411 W2       804      TIP3     H1       HT       0.417000       1.00800           0
      2412 W2       804      TIP3     H2       HT       0.417000       1.00800           0
      2413 W2       805      TIP3     OH2      OT      -0.834000       15.9994           0
      2414 W2       805      TIP3     H1       HT       0.417000       1.00800           0
      2415 W2       805      TIP3     H2       HT       0.417000       1.00800           0
      2416 W2       806      TIP3     OH2      OT      -0.834000       15.9994           0
      2417 W2       806      TIP3     H1       HT       0.417000       1.00800           0
      2418 W2       806      TIP3     H2       HT       0.417000       1.00800           0
      2419 W2       807      TIP3     OH2      OT      -0.834000       15.9994           0
      2420 W2       807      TIP3     H1       HT       0.417000       1.00800           0
      2421 W2       807      TIP3     H2       HT       0.417000       1.00800           0
      2422 W2       808      TIP3     OH2      OT      -0.834000       15.9994           0
      2423 W2       808      TIP3     H1       HT       0.417000       1.00800           0
      2424 W2       808      TIP3     H2       HT       0.417000       1.00800           0
      2425 W2       809      TIP3     OH2      OT      -0.834000       15.9994           0
      2426 W2       809      TIP3     H1       HT       0.417000       1.00800           0
      2427 W2       809      TIP3     H2       HT       0.417000       1.00800           0
      2428 W2       810      TIP3     OH2      OT      -0.834000       15.9994           0
      2429 W2       810      TIP3     H1       HT       0.417000       1.00800           0
      2430 W2       810      TIP3     H2       HT       0.417000       1.00800           0
      2431 W2       811      TIP3     OH2      OT      -0.834000       15.9994           0
      2432 W2       811      TIP3     H1       HT       0.417000       1.00800           0
      2433 W2       811      TIP3     H2       HT       0.417000       1.00800           0
      2434 W2       812      TIP3     OH2      OT      -0.834000       15.9994           0
      2435 W2       812      TIP3     H1       HT       0.417000       1.00800           0
      2436 W2       812      TIP3     H2       HT       0.417000       1.00800           0
      2437 W2       813      TIP3     OH2      OT      -0.834000       15.9994           0
      2438 W2       813      TIP3     H1       HT       0.417000       1.00800           0
      2439 W2       813      TIP3     H2       HT       0.417000       1.00800           0
      2440 W2       814      TIP3     OH2      OT      -0.834000       15.9994           0
      2441 W2       814      TIP3     H1       HT       0.417000       1.00800           0
      2442 W2       814      TIP3     H2       HT       0.417000       1.00800           0
      2443 W2       815      TIP3     OH2      OT      -0.834000       15.9994           0
      2444 W2       815      TIP3     H1       HT       0.417000       1.00800           0
      2445 W2       815      TIP3     H2       HT       0.417000       1.00800           0
      2446 W2       816      TIP3     OH2      OT      -0.834000       15.9994           0
      2447 W2       816      TIP3     H1       HT       0.417000       1.00800           0
      2448 W2       816      TIP3     H2       HT       0.417000       1.00800           0
      2449 W2       817      TIP3     OH2      OT      -0.834000       15.9994           0
      2450 W2       817      TIP3     H1       HT       0.417000       1.00800           0
      2451 W2       817      TIP3     H2       HT       0.417000       1.00800           0
      2452 W2       818      TIP3     OH2      OT      -0.834000       15.9994           0
      2453 W2       818      TIP3     H1       HT       0.417000       1.00800           0
      2454 W2       818      TIP3     H2       HT       0.417000       1.00800           0
      2455 W2       819      TIP3     OH2      OT      -0.834000       15.9994           0
      2456 W2       819      TIP3     H1       HT       0.417000       1.00800           0
      2457 W2       819      TIP3     H2       HT       0.417000       1.00800           0
      2458 W2       820      TIP3     OH2      OT      -0.834000       15.9994           0
      2459 W2       820      TIP3     H1       HT       0.417000       1.00800           0
      2460 W2       820      TIP3     H2       HT       0.417000       1.00800           0
      2461 W2       821      TIP3     OH2      OT      -0.834000       15.9994           0
      2462 W2       821      TIP3     H1       HT       0.417000       1.00800           0
      2463 W2       821      TIP3     H2       HT       0.417000       1.00800           0
      2464 W2       822      TIP3     OH2      OT      -0.834000       15.9994           0
      2465 W2       822      TIP3     H1       HT       0.417000       1.00800           0
      2466 W2       822      TIP3     H2       HT       0.417000       1.00800           0
      2467 W2       823      TIP3     OH2      OT      -0.834000       15.9994           0
      2468 W2       823      TIP3     H1       HT       0.417000       1.00800           0
      2469 W2       823      TIP3     H2       HT       0.417000       1.00800           0
      2470 W2       824      TIP3     OH2      OT      -0.834000       15.9994           0
      2471 W2       824      TIP3     H1       HT       0.417000       1.00800           0
      2472 W2       824      TIP3     H2       HT       0.417000       1.00800           0
      2473 W2       825      TIP3     OH2      OT      -0.834000       15.9994           0
      2474 W2       825      TIP3     H1       HT       0.417000       1.00800           0
      2475 W2       825      TIP3     H2       HT       0.417000       1.00800           0
      2476 W2       826      TIP3     OH2      OT      -0.834000       15.9994           0
      2477 W2       826      TIP3     H1       HT       0.417000       1.00800           0
      2478 W2       826      TIP3     H2       HT       0.417000       1.00800           0
      2479 W2       827      TIP3     OH2      OT      -0.834000       15.9994           0
      2480 W2       827      TIP3     H1       HT       0.417000       1.00800           0
      2481 W2       827      TIP3     H2       HT       0.417000       1.00800           0
      2482 W2       828      TIP3     OH2      OT      -0.834000       15.9994           0
      2483 W2       828      TIP3     H1       HT       0.417000       1.00800           0
      2484 W2       828      TIP3     H2       HT       0.417000       1.00800           0
      2485 W2       829      TIP3     OH2      OT      -0.834000       15.9994           0
      2486 W2       829      TIP3     H1       HT       0.417000       1.00800           0
      2487 W2       829      TIP3     H2       HT       0.417000       1.00800           0
      2488 W2       830      TIP3     OH2      OT      -0.834000       15.9994           0
      2489 W2       830      TIP3     H1       HT       0.417000       1.00800           0
      2490 W2       830      TIP3     H2       HT       0.417000       1.00800           0
      2491 W2       831      TIP3     OH2      OT      -0.834000       15.9994           0
      2492 W2       831      TIP3     H1       HT       0.417000       1.00800           0
      2493 W2       831      TIP3     H2       HT       0.417000       1.00800           0
      2494 W2       832      TIP3     OH2      OT      -0.834000       15.9994           0
      2495 W2       832      TIP3     H1       HT       0.417000       1.00800           0
      2496 W2       832      TIP3     H2       HT       0.417000       1.00800           0
      2497 W2       833      TIP3     OH2      OT      -0.834000       15.9994           0
      2498 W2       833      TIP3     H1       HT       0.417000       1.00800           0
      2499 W2       833      TIP3     H2       HT       0.417000       1.00800           0
      2500 W2       834      TIP3     OH2      OT      -0.834000       15.9994           0
      2501 W2       834      TIP3     H1       HT       0.417000       1.00800           0
      2502 W2       834      TIP3     H2       HT       0.417000       1.00800           0
      2503 W2       835      TIP3     OH2      OT      -0.834000       15.9994           0
      2504 W2       835      TIP3     H1       HT       0.417000       1.00800           0
      2505 W2       835      TIP3     H2       HT       0.417000       1.00800           0
      2506 W2       836      TIP3     OH2      OT      -0.834000       15.9994           0
      2507 W2       836      TIP3     H1       HT       0.417000       1.00800           0
      2508 W2       836      TIP3     H2       HT       0.417000       1.00800           0
      2509 W2       837      TIP3     OH2      OT      -0.834000       15.9994           0
      2510 W2       837      TIP3     H1       HT       0.417000       1.00800           0
      2511 W2       837      TIP3     H2       HT       0.417000       1.00800           0
      2512 W2       838      TIP3     OH2      OT      -0.834000       15.9994           0
      2513 W2       838      TIP3     H1       HT       0.417000       1.00800           0
      2514 W2       838      TIP3     H2       HT       0.417000       1.00800           0
      2515 W2       839      TIP3     OH2      OT      -0.834000       15.9994           0
      2516 W2       839      TIP3     H1       HT       0.417000       1.00800           0
      2517 W2       839      TIP3     H2       HT       0.417000       1.00800           0
      2518 W2       840      TIP3     OH2      OT      -0.834000       15.9994           0
      2519 W2       840      TIP3     H1       HT       0.417000       1.00800           0
      2520 W2       840      TIP3     H2       HT       0.417000       1.00800           0
      2521 W2       841      TIP3     OH2      OT      -0.834000       15.9994           0
      2522 W2       841      TIP3     H1       HT       0.417000       1.00800           0
      2523 W2       841      TIP3     H2       HT       0.417000       1.00800           0
      2524 W2       842      TIP3     OH2      OT      -0.834000       15.9994           0
      2525 W2       842      TIP3     H1       HT       0.417000       1.00800           0
      2526 W2       842      TIP3     H2       HT       0.417000       1.00800           0
      2527 W2       843      TIP3     OH2      OT      -0.834000       15.9994           0
      2528 W2       843      TIP3     H1       HT       0.417000       1.00800           0
      2529 W2       843      TIP3     H2       HT       0.417000       1.00800           0
      2530 W2       844      TIP3     OH2      OT      -0.834000       15.9994           0
      2531 W2       844      TIP3     H1       HT       0.417000       1.00800           0
      2532 W2       844      TIP3     H2       HT       0.417000       1.00800           0
      2533 W2       845      TIP3     OH2      OT      -0.834000       15.9994           0
      2534 W2       845      TIP3     H1       HT       0.417000       1.00800           0
      2535 W2       845      TIP3     H2       HT       0.417000       1.00800           0
      2536 W2       846      TIP3     OH2      OT      -0.834000       15.9994           0
      2537 W2       846      TIP3     H1       HT       0.417000       1.00800           0
      2538 W2       846      TIP3     H2       HT       0.417000       1.00800           0
      2539 W2       847      TIP3     OH2      OT      -0.834000       15.9994           0
      2540 W2       847      TIP3     H1       HT       0.417000       1.00800           0
      2541 W2       847      TIP3     H2       HT       0.417000       1.00800           0
      2542 W2       848      TIP3     OH2      OT      -0.834000       15.9994           0
      2543 W2       848      TIP3     H1       HT       0.417000       1.00800           0
      2544 W2       848      TIP3     H2       HT       0.417000       1.00800           0
      2545 W2       849      TIP3     OH2      OT      -0.834000       15.9994           0
      2546 W2       849      TIP3     H1       HT       0.417000       1.00800           0
      2547 W2       849      TIP3     H2       HT       0.417000       1.00800           0
      2548 W2       850      TIP3     OH2      OT      -0.834000       15.9994           0
      2549 W2       850      TIP3     H1       HT       0.417000       1.00800           0
      2550 W2       850      TIP3     H2       HT       0.417000       1.00800           0
      2551 W2       851      TIP3     OH2      OT      -0.834000       15.9994           0
      2552 W2       851      TIP3     H1       HT       0.417000       1.00800           0
      2553 W2       851      TIP3     H2       HT       0.417000       1.00800           0
      2554 W2       852      TIP3     OH2      OT      -0.834000       15.9994           0
      2555 W2       852      TIP3     H1       HT       0.417000       1.00800           0
      2556 W2       852      TIP3     H2       HT       0.417000       1.00800           0
      2557 W2       853      TIP3     OH2      OT      -0.834000       15.9994           0
      2558 W2       853      TIP3     H1       HT       0.417000       1.00800           0
      2559 W2       853      TIP3     H2       HT       0.417000       1.00800           0
      2560 W2       854      TIP3     OH2      OT      -0.834000       15.9994           0
      2561 W2       854      TIP3     H1       HT       0.417000       1.00800           0
      2562 W2       854      TIP3     H2       HT       0.417000       1.00800           0
      2563 W2       855      TIP3     OH2      OT      -0.834000       15.9994           0
      2564 W2       855      TIP3     H1       HT       0.417000       1.00800           0
      2565 W2       855      TIP3     H2       HT       0.417000       1.00800           0
      2566 W2       856      TIP3     OH2      OT      -0.834000       15.9994           0
      2567 W2       856      TIP3     H1       HT       0.417000       1.00800           0
      2568 W2       856      TIP3     H2       HT       0.417000       1.00800           0
      2569 W2       857      TIP3     OH2      OT      -0.834000       15.9994           0
      2570 W2       857      TIP3     H1       HT       0.417000       1.00800           0
      2571 W2       857      TIP3     H2       HT       0.417000       1.00800           0
      2572 W2       858      TIP3     OH2      OT      -0.834000       15.9994           0
      2573 W2       858      TIP3     H1       HT       0.417000       1.00800           0
      2574 W2       858      TIP3     H2       HT       0.417000       1.00800           0
      2575 W2       859      TIP3     OH2      OT      -0.834000       15.9994           0
      2576 W2       859      TIP3     H1       HT       0.417000       1.00800           0
      2577 W2       859      TIP3     H2       HT       0.417000       1.00800           0
      2578 W2       860      TIP3     OH2      OT      -0.834000       15.9994           0
      2579 W2       860      TIP3     H1       HT       0.417000       1.00800           0
      2580 W2       860      TIP3     H2       HT       0.417000       1.00800           0
      2581 W2       861      TIP3     OH2      OT      -0.834000       15.9994           0
      2582 W2       861      TIP3     H1       HT       0.417000       1.00800           0
      2583 W2       861      TIP3     H2       HT       0.417000       1.00800           0
      2584 W2       862      TIP3     OH2      OT      -0.834000       15.9994           0
      2585 W2       862      TIP3     H1       HT       0.417000       1.00800           0
      2586 W2       862      TIP3     H2       HT       0.417000       1.00800           0
      2587 W2       863      TIP3     OH2      OT      -0.834000       15.9994           0
      2588 W2       863      TIP3     H1       HT       0.417000       1.00800           0
      2589 W2       863      TIP3     H2       HT       0.417000       1.00800           0
      2590 W2       864      TIP3     OH2      OT      -0.834000       15.9994           0
      2591 W2       864      TIP3     H1       HT       0.417000       1.00800           0
      2592 W2       864      TIP3     H2       HT       0.417000       1.00800           0
      2593 W2       865      TIP3     OH2      OT      -0.834000       15.9994           0
      2594 W2       865      TIP3     H1       HT       0.417000       1.00800           0
      2595 W2       865      TIP3     H2       HT       0.417000       1.00800           0
      2596 W2       866      TIP3     OH2      OT      -0.834000       15.9994           0
      2597 W2       866      TIP3     H1       HT       0.417000       1.00800           0
      2598 W2       866      TIP3     H2       HT       0.417000       1.00800           0
      2599 W2       867      TIP3     OH2      OT      -0.834000       15.9994           0
      2600 W2       867      TIP3     H1       HT       0.417000       1.00800           0
      2601 W2       867      TIP3     H2       HT       0.417000       1.00800           0
      2602 W2       868      TIP3     OH2      OT      -0.834000       15.9994           0
      2603 W2       868      TIP3     H1       HT       0.417000       1.00800           0
      2604 W2       868      TIP3     H2       HT       0.417000       1.00800           0
      2605 W2       869      TIP3     OH2      OT      -0.834000       15.9994           0
      2606 W2       869      TIP3     H1       HT       0.417000       1.00800           0
      2607 W2       869      TIP3     H2       HT       0.417000       1.00800           0
      2608 W2       870      TIP3     OH2      OT      -0.834000       15.9994           0
      2609 W2       870      TIP3     H1       HT       0.417000       1.00800           0
      2610 W2       870      TIP3     H2       HT       0.417000       1.00800           0
      2611 W2       871      TIP3     OH2      OT      -0.834000       15.9994           0
      2612 W2       871      TIP3     H1       HT       0.417000       1.00800           0
      2613 W2       871      TIP3     H2       HT       0.417000       1.00800           0
      2614 W2       872      TIP3     OH2      OT      -0.834000       15.9994           0
      2615 W2       872      TIP3     H1       HT       0.417000       1.00800           0
      2616 W2       872      TIP3     H2       HT       0.417000       1.00800           0
      2617 W2       873      TIP3     OH2      OT      -0.834000       15.9994           0
      2618 W2       873      TIP3     H1       HT       0.417000       1.00800           0
      2619 W2       873      TIP3     H2       HT       0.417000       1.00800           0
      2620 W2       874      TIP3     OH2      OT      -0.834000       15.9994           0
      2621 W2       874      TIP3     H1       HT       0.417000       1.00800           0
      2622 W2       874      TIP3     H2       HT       0.417000       1.00800           0
      2623 W2       875      TIP3     OH2      OT      -0.834000       15.9994           0
      2624 W2       875      TIP3     H1       HT       0.417000       1.00800           0
      2625 W2       875      TIP3     H2       HT       0.417000       1.00800           0
      2626 W2       876      TIP3     OH2      OT      -0.834000       15.9994           0
      2627 W2       876      TIP3     H1       HT       0.417000       1.00800           0
      2628 W2       876      TIP3     H2       HT       0.417000       1.00800           0
      2629 W2       877      TIP3     OH2      OT      -0.834000       15.9994           0
      2630 W2       877      TIP3     H1       HT       0.417000       1.00800           0
      2631 W2       877      TIP3     H2       HT       0.417000       1.00800           0
      2632 W2       878      TIP3     OH2      OT      -0.834000       15.9994           0
      2633 W2       878      TIP3     H1       HT       0.417000       1.00800           0
      2634 W2       878      TIP3     H2       HT       0.417000       1.00800           0
      2635 W2       879      TIP3     OH2      OT      -0.834000       15.9994           0
      2636 W2       879      TIP3     H1       HT       0.417000       1.00800           0
      2637 W2       879      TIP3     H2       HT       0.417000       1.00800           0
      2638 W2       880      TIP3     OH2      OT      -0.834000       15.9994           0
      2639 W2       880      TIP3     H1       HT       0.417000       1.00800           0
      2640 W2       880      TIP3     H2       HT       0.417000       1.00800           0
      2641 W2       881      TIP3     OH2      OT      -0.834000       15.9994           0
      2642 W2       881      TIP3     H1       HT       0.417000       1.00800           0
      2643 W2       881      TIP3     H2       HT       0.417000       1.00800           0
      2644 W2       882      TIP3     OH2      OT      -0.834000       15.9994           0
      2645 W2       882      TIP3     H1       HT       0.417000       1.00800           0
      2646 W2       882      TIP3     H2       HT       0.417000       1.00800           0
      2647 W2       883      TIP3     OH2      OT      -0.834000       15.9994           0
      2648 W2       883      TIP3     H1       HT       0.417000       1.00800           0
      2649 W2       883      TIP3     H2       HT       0.417000       1.00800           0
      2650 W2       884      TIP3     OH2      OT      -0.834000       15.9994           0
      2651 W2       884      TIP3     H1       HT       0.417000       1.00800           0
      2652 W2       884      TIP3     H2       HT       0.417000       1.00800           0
      2653 W2       885      TIP3     OH2      OT      -0.834000       15.9994           0
      2654 W2       885      TIP3     H1       HT       0.417000       1.00800           0
      2655 W2       885      TIP3     H2       HT       0.417000       1.00800           0
      2656 W2       886      TIP3     OH2      OT      -0.834000       15.9994           0
      2657 W2       886      TIP3     H1       HT       0.417000       1.00800           0
      2658 W2       886      TIP3     H2       HT       0.417000       1.00800           0
      2659 W2       887      TIP3     OH2      OT      -0.834000       15.9994           0
      2660 W2       887      TIP3     H1       HT       0.417000       1.00800           0
      2661 W2       887      TIP3     H2       HT       0.417000       1.00800           0
      2662 W2       888      TIP3     OH2      OT      -0.834000       15.9994           0
      2663 W2       888      TIP3     H1       HT       0.417000       1.00800           0
      2664 W2       888      TIP3     H2       HT       0.417000       1.00800           0
      2665 W2       889      TIP3     OH2      OT      -0.834000       15.9994           0
      2666 W2       889      TIP3     H1       HT       0.417000       1.00800           0
      2667 W2       889      TIP3     H2       HT       0.417000       1.00800           0
      2668 W2       890      TIP3     OH2      OT      -0.834000       15.9994           0
      2669 W2       890      TIP3     H1       HT       0.417000       1.00800           0
      2670 W2       890      TIP3     H2       HT       0.417000       1.00800           0
      2671 W2       891      TIP3     OH2      OT      -0.834000       15.9994           0
      2672 W2       891      TIP3     H1       HT       0.417000       1.00800           0
      2673 W2       891      TIP3     H2       HT       0.417000       1.00800           0
      2674 W2       892      TIP3     OH2      OT      -0.834000       15.9994           0
      2675 W2       892      TIP3     H1       HT       0.417000       1.00800           0
      2676 W2       892      TIP3     H2       HT       0.417000       1.00800           0
      2677 W2       893      TIP3     OH2      OT      -0.834000       15.9994           0
      2678 W2       893      TIP3     H1       HT       0.417000       1.00800           0
      2679 W2       893      TIP3     H2       HT       0.417000       1.00800           0
      2680 W2       894      TIP3     OH2      OT      -0.834000       15.9994           0
      2681 W2       894      TIP3     H1       HT       0.417000       1.00800           0
      2682 W2       894      TIP3     H2       HT       0.417000       1.00800           0
      2683 W2       895      TIP3     OH2      OT      -0.834000       15.9994           0
      2684 W2       895      TIP3     H1       HT       0.417000       1.00800           0
      2685 W2       895      TIP3     H2       HT       0.417000       1.00800           0
      2686 W2       896      TIP3     OH2      OT      -0.834000       15.9994           0
      2687 W2       896      TIP3     H1       HT       0.417000       1.00800           0
      2688 W2       896      TIP3     H2       HT       0.417000       1.00800           0
      2689 W2       897      TIP3     OH2      OT      -0.834000       15.9994           0
      2690 W2       897      TIP3     H1       HT       0.417000       1.00800           0
      2691 W2       897      TIP3     H2       HT       0.417000       1.00800           0
      2692 W2       898      TIP3     OH2      OT      -0.834000       15.9994           0
      2693 W2       898      TIP3     H1       HT       0.417000       1.00800           0
      2694 W2       898      TIP3     H2       HT       0.417000       1.00800           0
      2695 W2       899      TIP3     OH2      OT      -0.834000       15.9994           0
      2696 W2       899      TIP3     H1       HT       0.417000       1.00800           0
      2697 W2       899      TIP3     H2       HT       0.417000       1.00800           0
      2698 W2       900      TIP3     OH2      OT      -0.834000       15.9994           0
      2699 W2       900      TIP3     H1       HT       0.417000       1.00800           0
      2700 W2       900      TIP3     H2       HT       0.417000       1.00800           0
      2701 W2       901      TIP3     OH2      OT      -0.834000       15.9994           0
      2702 W2       901      TIP3     H1       HT       0.417000       1.00800           0
      2703 W2       901      TIP3     H2       HT       0.417000       1.00800           0
      2704 W2       902      TIP3     OH2      OT      -0.834000       15.9994           0
      2705 W2       902      TIP3     H1       HT       0.417000       1.00800           0
      2706 W2       902      TIP3     H2       HT       0.417000       1.00800           0
      2707 W2       903      TIP3     OH2      OT      -0.834000       15.9994           0
      2708 W2       903      TIP3     H1       HT       0.417000       1.00800           0
      2709 W2       903      TIP3     H2       HT       0.417000       1.00800           0
      2710 W2       904      TIP3     OH2      OT      -0.834000       15.9994           0
      2711 W2       904      TIP3     H1       HT       0.417000       1.00800           0
      2712 W2       904      TIP3     H2       HT       0.417000       1.00800           0
      2713 W2       905      TIP3     OH2      OT      -0.834000       15.9994           0
      2714 W2       905      TIP3     H1       HT       0.417000       1.00800           0
      2715 W2       905      TIP3     H2       HT       0.417000       1.00800           0
      2716 W2       906      TIP3     OH2      OT      -0.834000       15.9994           0
      2717 W2       906      TIP3     H1       HT       0.417000       1.00800           0
      2718 W2       906      TIP3     H2       HT       0.417000       1.00800           0
      2719 W2       907      TIP3     OH2      OT      -0.834000       15.9994           0
      2720 W2       907      TIP3     H1       HT       0.417000       1.00800           0
      2721 W2       907      TIP3     H2       HT       0.417000       1.00800           0
      2722 W2       908      TIP3     OH2      OT      -0.834000       15.9994           0
      2723 W2       908      TIP3     H1       HT       0.417000       1.00800           0
      2724 W2       908      TIP3     H2       HT       0.417000       1.00800           0
      2725 W2       909      TIP3     OH2      OT      -0.834000       15.9994           0
      2726 W2       909      TIP3     H1       HT       0.417000       1.00800           0
      2727 W2       909      TIP3     H2       HT       0.417000       1.00800           0
      2728 W2       910      TIP3     OH2      OT      -0.834000       15.9994           0
      2729 W2       910      TIP3     H1       HT       0.417000       1.00800           0
      2730 W2       910      TIP3     H2       HT       0.417000       1.00800           0
      2731 W2       911      TIP3     OH2      OT      -0.834000       15.9994           0
      2732 W2       911      TIP3     H1       HT       0.417000       1.00800           0
      2733 W2       911      TIP3     H2       HT       0.417000       1.00800           0
      2734 W2       912      TIP3     OH2      OT      -0.834000       15.9994           0
      2735 W2       912      TIP3     H1       HT       0.417000       1.00800           0
      2736 W2       912      TIP3     H2       HT       0.417000       1.00800           0
      2737 W2       913      TIP3     OH2      OT      -0.834000       15.9994           0
      2738 W2       913      TIP3     H1       HT       0.417000       1.00800           0
      2739 W2       913      TIP3     H2       HT       0.417000       1.00800           0
      2740 W2       914      TIP3     OH2      OT      -0.834000       15.9994           0
      2741 W2       914      TIP3     H1       HT       0.417000       1.00800           0
      2742 W2       914      TIP3     H2       HT       0.417000       1.00800           0
      2743 W2       915      TIP3     OH2      OT      -0.834000       15.9994           0
      2744 W2       915      TIP3     H1       HT       0.417000       1.00800           0
      2745 W2       915      TIP3     H2       HT       0.417000       1.00800           0
      2746 W2       916      TIP3     OH2      OT      -0.834000       15.9994           0
      2747 W2       916      TIP3     H1       HT       0.417000       1.00800           0
      2748 W2       916      TIP3     H2       HT       0.417000       1.00800           0
      2749 W2       917      TIP3     OH2      OT      -0.834000       15.9994           0
      2750 W2       917      TIP3     H1       HT       0.417000       1.00800           0
      2751 W2       917      TIP3     H2       HT       0.417000       1.00800           0
      2752 W2       918      TIP3     OH2      OT      -0.834000       15.9994           0
      2753 W2       918      TIP3     H1       HT       0.417000       1.00800           0
      2754 W2       918      TIP3     H2       HT       0.417000       1.00800           0
      2755 W2       919      TIP3     OH2      OT      -0.834000       15.9994           0
      2756 W2       919      TIP3     H1       HT       0.417000       1.00800           0
      2757 W2       919      TIP3     H2       HT       0.417000       1.00800           0
      2758 W2       920      TIP3     OH2      OT      -0.834000       15.9994           0
      2759 W2       920      TIP3     H1       HT       0.417000       1.00800           0
      2760 W2       920      TIP3     H2       HT       0.417000       1.00800           0
      2761 W2       921      TIP3     OH2      OT      -0.834000       15.9994           0
      2762 W2       921      TIP3     H1       HT       0.417000       1.00800           0
      2763 W2       921      TIP3     H2       HT       0.417000       1.00800           0
      2764 W2       922      TIP3     OH2      OT      -0.834000       15.9994           0
      2765 W2       922      TIP3     H1       HT       0.417000       1.00800           0
      2766 W2       922      TIP3     H2       HT       0.417000       1.00800           0
      2767 W2       923      TIP3     OH2      OT      -0.834000       15.9994           0
      2768 W2       923      TIP3     H1       HT       0.417000       1.00800           0
      2769 W2       923      TIP3     H2       HT       0.417000       1.00800           0
      2770 W2       924      TIP3     OH2      OT      -0.834000       15.9994           0
      2771 W2       924      TIP3     H1       HT       0.417000       1.00800           0
      2772 W2       924      TIP3     H2       HT       0.417000       1.00800           0
      2773 W2       925      TIP3     OH2      OT      -0.834000       15.9994           0
      2774 W2       925      TIP3     H1       HT       0.417000       1.00800           0
      2775 W2       925      TIP3     H2       HT       0.417000       1.00800           0
      2776 W2       926      TIP3     OH2      OT      -0.834000       15.9994           0
      2777 W2       926      TIP3     H1       HT       0.417000       1.00800           0
      2778 W2       926      TIP3     H2       HT       0.417000       1.00800           0
      2779 W2       927      TIP3     OH2      OT      -0.834000       15.9994           0
      2780 W2       927      TIP3     H1       HT       0.417000       1.00800           0
      2781 W2       927      TIP3     H2       HT       0.417000       1.00800           0
      2782 W2       928      TIP3     OH2      OT      -0.834000       15.9994           0
      2783 W2       928      TIP3     H1       HT       0.417000       1.00800           0
      2784 W2       928      TIP3     H2       HT       0.417000       1.00800           0
      2785 W2       929      TIP3     OH2      OT      -0.834000       15.9994           0
      2786 W2       929      TIP3     H1       HT       0.417000       1.00800           0
      2787 W2       929      TIP3     H2       HT       0.417000       1.00800           0
      2788 W2       930      TIP3     OH2      OT      -0.834000       15.9994           0
      2789 W2       930      TIP3     H1       HT       0.417000       1.00800           0
      2790 W2       930      TIP3     H2       HT       0.417000       1.00800           0
      2791 W2       931      TIP3     OH2      OT      -0.834000       15.9994           0
      2792 W2       931      TIP3     H1       HT       0.417000       1.00800           0
      2793 W2       931      TIP3     H2       HT       0.417000       1.00800           0
      2794 W2       932      TIP3     OH2      OT      -0.834000       15.9994           0
      2795 W2       932      TIP3     H1       HT       0.417000       1.00800           0
      2796 W2       932      TIP3     H2       HT       0.417000       1.00800           0
      2797 W2       933      TIP3     OH2      OT      -0.834000       15.9994           0
      2798 W2       933      TIP3     H1       HT       0.417000       1.00800           0
      2799 W2       933      TIP3     H2       HT       0.417000       1.00800           0
      2800 W2       934      TIP3     OH2      OT      -0.834000       15.9994           0
      2801 W2       934      TIP3     H1       HT       0.417000       1.00800           0
      2802 W2       934      TIP3     H2       HT       0.417000       1.00800           0
      2803 W2       935      TIP3     OH2      OT      -0.834000       15.9994           0
      2804 W2       935      TIP3     H1       HT       0.417000       1.00800           0
      2805 W2       935      TIP3     H2       HT       0.417000       1.00800           0
      2806 W2       936      TIP3     OH2      OT      -0.834000       15.9994           0
      2807 W2       936      TIP3     H1       HT       0.417000       1.00800           0
      2808 W2       936      TIP3     H2       HT       0.417000       1.00800           0
      2809 W2       937      TIP3     OH2      OT      -0.834000       15.9994           0
      2810 W2       937      TIP3     H1       HT       0.417000       1.00800           0
      2811 W2       937      TIP3     H2       HT       0.417000       1.00800           0
      2812 W2       938      TIP3     OH2      OT      -0.834000       15.9994           0
      2813 W2       938      TIP3     H1       HT       0.417000       1.00800           0
      2814 W2       938      TIP3     H2       HT       0.417000       1.00800           0
      2815 W2       939      TIP3     OH2      OT      -0.834000       15.9994           0
      2816 W2       939      TIP3     H1       HT       0.417000       1.00800           0
      2817 W2       939      TIP3     H2       HT       0.417000       1.00800           0
      2818 W2       940      TIP3     OH2      OT      -0.834000       15.9994           0
      2819 W2       940      TIP3     H1       HT       0.417000       1.00800           0
      2820 W2       940      TIP3     H2       HT       0.417000       1.00800           0
      2821 W2       941      TIP3     OH2      OT      -0.834000       15.9994           0
      2822 W2       941      TIP3     H1       HT       0.417000       1.00800           0
      2823 W2       941      TIP3     H2       HT       0.417000       1.00800           0
      2824 W2       942      TIP3     OH2      OT      -0.834000       15.9994           0
      2825 W2       942      TIP3     H1       HT       0.417000       1.00800           0
      2826 W2       942      TIP3     H2       HT       0.417000       1.00800           0
      2827 W2       943      TIP3     OH2      OT      -0.834000       15.9994           0
      2828 W2       943      TIP3     H1       HT       0.417000       1.00800           0
      2829 W2       943      TIP3     H2       HT       0.417000       1.00800           0
      2830 W2       944      TIP3     OH2      OT      -0.834000       15.9994           0
      2831 W2       944      TIP3     H1       HT       0.417000       1.00800           0
      2832 W2       944      TIP3     H2       HT       0.417000       1.00800           0
      2833 W2       945      TIP3     OH2      OT      -0.834000       15.9994           0
      2834 W2       945      TIP3     H1       HT       0.417000       1.00800           0
      2835 W2       945      TIP3     H2       HT       0.417000       1.00800           0
      2836 W2       946      TIP3     OH2      OT      -0.834000       15.9994           0
      2837 W2       946      TIP3     H1       HT       0.417000       1.00800           0
      2838 W2       946      TIP3     H2       HT       0.417000       1.00800           0
      2839 W2       947      TIP3     OH2      OT      -0.834000       15.9994           0
      2840 W2       947      TIP3     H1       HT       0.417000       1.00800           0
      2841 W2       947      TIP3     H2       HT       0.417000       1.00800           0
      2842 W2       948      TIP3     OH2      OT      -0.834000       15.9994           0
      2843 W2       948      TIP3     H1       HT       0.417000       1.00800           0
      2844 W2       948      TIP3     H2       HT       0.417000       1.00800           0
      2845 W2       949      TIP3     OH2      OT      -0.834000       15.9994           0
      2846 W2       949      TIP3     H1       HT       0.417000       1.00800           0
      2847 W2       949      TIP3     H2       HT       0.417000       1.00800           0
      2848 W2       950      TIP3     OH2      OT      -0.834000       15.9994           0
      2849 W2       950      TIP3     H1       HT       0.417000       1.00800           0
      2850 W2       950      TIP3     H2       HT       0.417000       1.00800           0
      2851 W2       951      TIP3     OH2      OT      -0.834000       15.9994           0
      2852 W2       951      TIP3     H1       HT       0.417000       1.00800           0
      2853 W2       951      TIP3     H2       HT       0.417000       1.00800           0
      2854 W2       952      TIP3     OH2      OT      -0.834000       15.9994           0
      2855 W2       952      TIP3     H1       HT       0.417000       1.00800           0
      2856 W2       952      TIP3     H2       HT       0.417000       1.00800           0
      2857 W2       953      TIP3     OH2      OT      -0.834000       15.9994           0
      2858 W2       953      TIP3     H1       HT       0.417000       1.00800           0
      2859 W2       953      TIP3     H2       HT       0.417000       1.00800           0
      2860 W2       954      TIP3     OH2      OT      -0.834000       15.9994           0
      2861 W2       954      TIP3     H1       HT       0.417000       1.00800           0
      2862 W2       954      TIP3     H2       HT       0.417000       1.00800           0
      2863 W2       955      TIP3     OH2      OT      -0.834000       15.9994           0
      2864 W2       955      TIP3     H1       HT       0.417000       1.00800           0
      2865 W2       955      TIP3     H2       HT       0.417000       1.00800           0
      2866 W2       956      TIP3     OH2      OT      -0.834000       15.9994           0
      2867 W2       956      TIP3     H1       HT       0.417000       1.00800           0
      2868 W2       956      TIP3     H2       HT       0.417000       1.00800           0
      2869 W2       957      TIP3     OH2      OT      -0.834000       15.9994           0
      2870 W2       957      TIP3     H1       HT       0.417000       1.00800           0
      2871 W2       957      TIP3     H2       HT       0.417000       1.00800           0
      2872 W2       958      TIP3     OH2      OT      -0.834000       15.9994           0
      2873 W2       958      TIP3     H1       HT       0.417000       1.00800           0
      2874 W2       958      TIP3     H2       HT       0.417000       1.00800           0
      2875 W2       959      TIP3     OH2      OT      -0.834000       15.9994           0
      2876 W2       959      TIP3     H1       HT       0.417000       1.00800           0
      2877 W2       959      TIP3     H2       HT       0.417000       1.00800           0
      2878 W2       960      TIP3     OH2      OT      -0.834000       15.9994           0
      2879 W2       960      TIP3     H1       HT       0.417000       1.00800           0
      2880 W2       960      TIP3     H2       HT       0.417000       1.00800           0
      2881 W2       961      TIP3     OH2      OT      -0.834000       15.9994           0
      2882 W2       961      TIP3     H1       HT       0.417000       1.00800           0
      2883 W2       961      TIP3     H2       HT       0.417000       1.00800           0
      2884 W2       962      TIP3     OH2      OT      -0.834000       15.9994           0
      2885 W2       962      TIP3     H1       HT       0.417000       1.00800           0
      2886 W2       962      TIP3     H2       HT       0.417000       1.00800           0
      2887 W2       963      TIP3     OH2      OT      -0.834000       15.9994           0
      2888 W2       963      TIP3     H1       HT       0.417000       1.00800           0
      2889 W2       963      TIP3     H2       HT       0.417000       1.00800           0
      2890 W2       964      TIP3     OH2      OT      -0.834000       15.9994           0
      2891 W2       964      TIP3     H1       HT       0.417000       1.00800           0
      2892 W2       964      TIP3     H2       HT       0.417000       1.00800           0
      2893 W2       965      TIP3     OH2      OT      -0.834000       15.9994           0
      2894 W2       965      TIP3     H1       HT       0.417000       1.00800           0
      2895 W2       965      TIP3     H2       HT       0.417000       1.00800           0
      2896 W2       966      TIP3     OH2      OT      -0.834000       15.9994           0
      2897 W2       966      TIP3     H1       HT       0.417000       1.00800           0
      2898 W2       966      TIP3     H2       HT       0.417000       1.00800           0
      2899 W2       967      TIP3     OH2      OT      -0.834000       15.9994           0
      2900 W2       967      TIP3     H1       HT       0.417000       1.00800           0
      2901 W2       967      TIP3     H2       HT       0.417000       1.00800           0
      2902 W2       968      TIP3     OH2      OT      -0.834000       15.9994           0
      2903 W2       968      TIP3     H1       HT       0.417000       1.00800           0
      2904 W2       968      TIP3     H2       HT       0.417000       1.00800           0
      2905 W2       969      TIP3     OH2      OT      -0.834000       15.9994           0
      2906 W2       969      TIP3     H1       HT       0.417000       1.00800           0
      2907 W2       969      TIP3     H2       HT       0.417000       1.00800           0
      2908 W2       970      TIP3     OH2      OT      -0.834000       15.9994           0
      2909 W2       970      TIP3     H1       HT       0.417000       1.00800           0
      2910 W2       970      TIP3     H2       HT       0.417000       1.00800           0
      2911 W2       971      TIP3     OH2      OT      -0.834000       15.9994           0
      2912 W2       971      TIP3     H1       HT       0.417000       1.00800           0
      2913 W2       971      TIP3     H2       HT       0.417000       1.00800           0
      2914 W2       972      TIP3     OH2      OT      -0.834000       15.9994           0
      2915 W2       972      TIP3     H1       HT       0.417000       1.00800           0
      2916 W2       972      TIP3     H2       HT       0.417000       1.00800           0
      2917 W2       973      TIP3     OH2      OT      -0.834000       15.9994           0
      2918 W2       973      TIP3     H1       HT       0.417000       1.00800           0
      2919 W2       973      TIP3     H2       HT       0.417000       1.00800           0
      2920 W2       974      TIP3     OH2      OT      -0.834000       15.9994           0
      2921 W2       974      TIP3     H1       HT       0.417000       1.00800           0
      2922 W2       974      TIP3     H2       HT       0.417000       1.00800           0
      2923 W2       975      TIP3     OH2      OT      -0.834000       15.9994           0
      2924 W2       975      TIP3     H1       HT       0.417000       1.00800           0
      2925 W2       975      TIP3     H2       HT       0.417000       1.00800           0
      2926 W2       976      TIP3     OH2      OT      -0.834000       15.9994           0
      2927 W2       976      TIP3     H1       HT       0.417000       1.00800           0
      2928 W2       976      TIP3     H2       HT       0.417000       1.00800           0
      2929 W2       977      TIP3     OH2      OT      -0.834000       15.9994           0
      2930 W2       977      TIP3     H1       HT       0.417000       1.00800           0
      2931 W2       977      TIP3     H2       HT       0.417000       1.00800           0
      2932 W2       978      TIP3     OH2      OT      -0.834000       15.9994           0
      2933 W2       978      TIP3     H1       HT       0.417000       1.00800           0
      2934 W2       978      TIP3     H2       HT       0.417000       1.00800           0
      2935 W2       979      TIP3     OH2      OT      -0.834000       15.9994           0
      2936 W2       979      TIP3     H1       HT       0.417000       1.00800           0
      2937 W2       979      TIP3     H2       HT       0.417000       1.00800           0
      2938 W2       980      TIP3     OH2      OT      -0.834000       15.9994           0
      2939 W2       980      TIP3     H1       HT       0.417000       1.00800           0
      2940 W2       980      TIP3     H2       HT       0.417000       1.00800           0
      2941 W2       981      TIP3     OH2      OT      -0.834000       15.9994           0
      2942 W2       981      TIP3     H1       HT       0.417000       1.00800           0
      2943 W2       981      TIP3     H2       HT       0.417000       1.00800           0
      2944 W2       982      TIP3     OH2      OT      -0.834000       15.9994           0
      2945 W2       982      TIP3     H1       HT       0.417000       1.00800           0
      2946 W2       982      TIP3     H2       HT       0.417000       1.00800           0
      2947 W2       983      TIP3     OH2      OT      -0.834000       15.9994           0
      2948 W2       983      TIP3     H1       HT       0.417000       1.00800           0
      2949 W2       983      TIP3     H2       HT       0.417000       1.00800           0
      2950 W2       984      TIP3     OH2      OT      -0.834000       15.9994           0
      2951 W2       984      TIP3     H1       HT       0.417000       1.00800           0
      2952 W2       984      TIP3     H2       HT       0.417000       1.00800           0
      2953 W2       985      TIP3     OH2      OT      -0.834000       15.9994           0
      2954 W2       985      TIP3     H1       HT       0.417000       1.00800           0
      2955 W2       985      TIP3     H2       HT       0.417000       1.00800           0
      2956 W2       986      TIP3     OH2      OT      -0.834000       15.9994           0
      2957 W2       986      TIP3     H1       HT       0.417000       1.00800           0
      2958 W2       986      TIP3     H2       HT       0.417000       1.00800           0
      2959 W2       987      TIP3     OH2      OT      -0.834000       15.9994           0
      2960 W2       987      TIP3     H1       HT       0.417000       1.00800           0
      2961 W2       987      TIP3     H2       HT       0.417000       1.00800           0
      2962 W2       988      TIP3     OH2      OT      -0.834000       15.9994           0
      2963 W2       988      TIP3     H1       HT       0.417000       1.00800           0
      2964 W2       988      TIP3     H2       HT       0.417000       1.00800           0
      2965 W2       989      TIP3     OH2      OT      -0.834000       15.9994           0
      2966 W2       989      TIP3     H1       HT       0.417000       1.00800           0
      2967 W2       989      TIP3     H2       HT       0.417000       1.00800           0
      2968 W2       990      TIP3     OH2      OT      -0.834000       15.9994           0
      2969 W2       990      TIP3     H1       HT       0.417000       1.00800           0
      2970 W2       990      TIP3     H2       HT       0.417000       1.00800           0
      2971 W2       991      TIP3     OH2      OT      -0.834000       15.9994           0
      2972 W2       991      TIP3     H1       HT       0.417000       1.00800           0
      2973 W2       991      TIP3     H2       HT       0.417000       1.00800           0
      2974 W2       992      TIP3     OH2      OT      -0.834000       15.9994           0
      2975 W2       992      TIP3     H1       HT       0.417000       1.00800           0
      2976 W2       992      TIP3     H2       HT       0.417000       1.00800           0
      2977 W2       993      TIP3     OH2      OT      -0.834000       15.9994           0
      2978 W2       993      TIP3     H1       HT       0.417000       1.00800           0
      2979 W2       993      TIP3     H2       HT       0.417000       1.00800           0
      2980 W2       994      TIP3     OH2      OT      -0.834000       15.9994           0
      2981 W2       994      TIP3     H1       HT       0.417000       1.00800           0
      2982 W2       994      TIP3     H2       HT       0.417000       1.00800           0
      2983 W2       995      TIP3     OH2      OT      -0.834000       15.9994           0
      2984 W2       995      TIP3     H1       HT       0.417000       1.00800           0
      2985 W2       995      TIP3     H2       HT       0.417000       1.00800           0
      2986 W2       996      TIP3     OH2      OT      -0.834000       15.9994           0
      2987 W2       996      TIP3     H1       HT       0.417000       1.00800           0
      2988 W2       996      TIP3     H2       HT       0.417000       1.00800           0
      2989 W2       997      TIP3     OH2      OT      -0.834000       15.9994           0
      2990 W2       997      TIP3     H1       HT       0.417000       1.00800           0
      2991 W2       997      TIP3     H2       HT       0.417000       1.00800           0
      2992 W2       998      TIP3     OH2      OT      -0.834000       15.9994           0
      2993 W2       998      TIP3     H1       HT       0.417000       1.00800           0
      2994 W2       998      TIP3     H2       HT       0.417000       1.00800           0
      2995 W2       999      TIP3     OH2      OT      -0.834000       15.9994           0
      2996 W2       999      TIP3     H1       HT       0.417000       1.00800           0
      2997 W2       999      TIP3     H2       HT       0.417000       1.00800           0
      2998 W2       1000     TIP3     OH2      OT      -0.834000       15.9994           0
      2999 W2       1000     TIP3     H1       HT       0.417000       1.00800           0
      3000 W2       1000     TIP3     H2       HT       0.417000       1.00800           0
      3001 W2       1001     TIP3     OH2      OT      -0.834000       15.9994           0
      3002 W2       1001     TIP3     H1       HT       0.417000       1.00800           0
      3003 W2       1001     TIP3     H2       HT       0.417000       1.00800           0
      3004 W2       1002     TIP3     OH2      OT      -0.834000       15.9994           0
      3005 W2       1002     TIP3     H1       HT       0.417000       1.00800           0
      3006 W2       1002     TIP3     H2       HT       0.417000       1.00800           0
      3007 W2       1003     TIP3     OH2      OT      -0.834000       15.9994           0
      3008 W2       1003     TIP3     H1       HT       0.417000       1.00800           0
      3009 W2       1003     TIP3     H2       HT       0.417000       1.00800           0
      3010 W2       1004     TIP3     OH2      OT      -0.834000       15.9994           0
      3011 W2       1004     TIP3     H1       HT       0.417000       1.00800           0
      3012 W2       1004     TIP3     H2       HT       0.417000       1.00800           0
      3013 W2       1005     TIP3     OH2      OT      -0.834000       15.9994           0
      3014 W2       1005     TIP3     H1       HT       0.417000       1.00800           0
      3015 W2       1005     TIP3     H2       HT       0.417000       1.00800           0
      3016 W2       1006     TIP3     OH2      OT      -0.834000       15.9994           0
      3017 W2       1006     TIP3     H1       HT       0.417000       1.00800           0
      3018 W2       1006     TIP3     H2       HT       0.417000       1.00800           0
      3019 W2       1007     TIP3     OH2      OT      -0.834000       15.9994           0
      3020 W2       1007     TIP3     H1       HT       0.417000       1.00800           0
      3021 W2       1007     TIP3     H2       HT       0.417000       1.00800           0
      3022 W2       1008     TIP3     OH2      OT      -0.834000       15.9994           0
      3023 W2       1008     TIP3     H1       HT       0.417000       1.00800           0
      3024 W2       1008     TIP3     H2       HT       0.417000       1.00800           0
      3025 W2       1009     TIP3     OH2      OT      -0.834000       15.9994           0
      3026 W2       1009     TIP3     H1       HT       0.417000       1.00800           0
      3027 W2       1009     TIP3     H2       HT       0.417000       1.00800           0
      3028 W2       1010     TIP3     OH2      OT      -0.834000       15.9994           0
      3029 W2       1010     TIP3     H1       HT       0.417000       1.00800           0
      3030 W2       1010     TIP3     H2       HT       0.417000       1.00800           0
      3031 W2       1011     TIP3     OH2      OT      -0.834000       15.9994           0
      3032 W2       1011     TIP3     H1       HT       0.417000       1.00800           0
      3033 W2       1011     TIP3     H2       HT       0.417000       1.00800           0
      3034 W2       1012     TIP3     OH2      OT      -0.834000       15.9994           0
      3035 W2       1012     TIP3     H1       HT       0.417000       1.00800           0
      3036 W2       1012     TIP3     H2       HT       0.417000       1.00800           0
      3037 W2       1013     TIP3     OH2      OT      -0.834000       15.9994           0
      3038 W2       1013     TIP3     H1       HT       0.417000       1.00800           0
      3039 W2       1013     TIP3     H2       HT       0.417000       1.00800           0
      3040 W2       1014     TIP3     OH2      OT      -0.834000       15.9994           0
      3041 W2       1014     TIP3     H1       HT       0.417000       1.00800           0
      3042 W2       1014     TIP3     H2       HT       0.417000       1.00800           0
      3043 W2       1015     TIP3     OH2      OT      -0.834000       15.9994           0
      3044 W2       1015     TIP3     H1       HT       0.417000       1.00800           0
      3045 W2       1015     TIP3     H2       HT       0.417000       1.00800           0
      3046 W2       1016     TIP3     OH2      OT      -0.834000       15.9994           0
      3047 W2       1016     TIP3     H1       HT       0.417000       1.00800           0
      3048 W2       1016     TIP3     H2       HT       0.417000       1.00800           0
      3049 W2       1017     TIP3     OH2      OT      -0.834000       15.9994           0
      3050 W2       1017     TIP3     H1       HT       0.417000       1.00800           0
      3051 W2       1017     TIP3     H2       HT       0.417000       1.00800           0
      3052 W2       1018     TIP3     OH2      OT      -0.834000       15.9994           0
      3053 W2       1018     TIP3     H1       HT       0.417000       1.00800           0
      3054 W2       1018     TIP3     H2       HT       0.417000       1.00800           0
      3055 W2       1019     TIP3     OH2      OT      -0.834000       15.9994           0
      3056 W2       1019     TIP3     H1       HT       0.417000       1.00800           0
      3057 W2       1019     TIP3     H2       HT       0.417000       1.00800           0
      3058 W2       1020     TIP3     OH2      OT      -0.834000       15.9994           0
      3059 W2       1020     TIP3     H1       HT       0.417000       1.00800           0
      3060 W2       1020     TIP3     H2       HT       0.417000       1.00800           0
      3061 W2       1021     TIP3     OH2      OT      -0.834000       15.9994           0
      3062 W2       1021     TIP3     H1       HT       0.417000       1.00800           0
      3063 W2       1021     TIP3     H2       HT       0.417000       1.00800           0
      3064 W2       1022     TIP3     OH2      OT      -0.834000       15.9994           0
      3065 W2       1022     TIP3     H1       HT       0.417000       1.00800           0
      3066 W2       1022     TIP3     H2       HT       0.417000       1.00800           0
      3067 W2       1023     TIP3     OH2      OT      -0.834000       15.9994           0
      3068 W2       1023     TIP3     H1       HT       0.417000       1.00800           0
      3069 W2       1023     TIP3     H2       HT       0.417000       1.00800           0
      3070 W2       1024     TIP3     OH2      OT      -0.834000       15.9994           0
      3071 W2       1024     TIP3     H1       HT       0.417000       1.00800           0
      3072 W2       1024     TIP3     H2       HT       0.417000       1.00800           0
      3073 W2       1025     TIP3     OH2      OT      -0.834000       15.9994           0
      3074 W2       1025     TIP3     H1       HT       0.417000       1.00800           0
      3075 W2       1025     TIP3     H2       HT       0.417000       1.00800           0
      3076 W2       1026     TIP3     OH2      OT      -0.834000       15.9994           0
      3077 W2       1026     TIP3     H1       HT       0.417000       1.00800           0
      3078 W2       1026     TIP3     H2       HT       0.417000       1.00800           0
      3079 W2       1027     TIP3     OH2      OT      -0.834000       15.9994           0
      3080 W2       1027     TIP3     H1       HT       0.417000       1.00800           0
      3081 W2       1027     TIP3     H2       HT       0.417000       1.00800           0
      3082 W2       1028     TIP3     OH2      OT      -0.834000       15.9994           0
      3083 W2       1028     TIP3     H1       HT       0.417000       1.00800           0
      3084 W2       1028     TIP3     H2       HT       0.417000       1.00800           0
      3085 W2       1029     TIP3     OH2      OT      -0.834000       15.9994           0
      3086 W2       1029     TIP3     H1       HT       0.417000       1.00800           0
      3087 W2       1029     TIP3     H2       HT       0.417000       1.00800           0
      3088 W2       1030     TIP3     OH2      OT      -0.834000       15.9994           0
      3089 W2       1030     TIP3     H1       HT       0.417000       1.00800           0
      3090 W2       1030     TIP3     H2       HT       0.417000       1.00800           0
      3091 W2       1031     TIP3     OH2      OT      -0.834000       15.9994           0
      3092 W2       1031     TIP3     H1       HT       0.417000       1.00800           0
      3093 W2       1031     TIP3     H2       HT       0.417000       1.00800           0
      3094 W2       1032     TIP3     OH2      OT      -0.834000       15.9994           0
      3095 W2       1032     TIP3     H1       HT       0.417000       1.00800           0
      3096 W2       1032     TIP3     H2       HT       0.417000       1.00800           0
      3097 W2       1033     TIP3     OH2      OT      -0.834000       15.9994           0
      3098 W2       1033     TIP3     H1       HT       0.417000       1.00800           0
      3099 W2       1033     TIP3     H2       HT       0.417000       1.00800           0
      3100 W2       1034     TIP3     OH2      OT      -0.834000       15.9994           0
      3101 W2       1034     TIP3     H1       HT       0.417000       1.00800           0
      3102 W2       1034     TIP3     H2       HT       0.417000       1.00800           0
      3103 W2       1035     TIP3     OH2      OT      -0.834000       15.9994           0
      3104 W2       1035     TIP3     H1       HT       0.417000       1.00800           0
      3105 W2       1035     TIP3     H2       HT       0.417000       1.00800           0
      3106 W2       1036     TIP3     OH2      OT      -0.834000       15.9994           0
      3107 W2       1036     TIP3     H1       HT       0.417000       1.00800           0
      3108 W2       1036     TIP3     H2       HT       0.417000       1.00800           0
      3109 W2       1037     TIP3     OH2      OT      -0.834000       15.9994           0
      3110 W2       1037     TIP3     H1       HT       0.417000       1.00800           0
      3111 W2       1037     TIP3     H2       HT       0.417000       1.00800           0
      3112 W2       1038     TIP3     OH2      OT      -0.834000       15.9994           0
      3113 W2       1038     TIP3     H1       HT       0.417000       1.00800           0
      3114 W2       1038     TIP3     H2       HT       0.417000       1.00800           0
      3115 W2       1039     TIP3     OH2      OT      -0.834000       15.9994           0
      3116 W2       1039     TIP3     H1       HT       0.417000       1.00800           0
      3117 W2       1039     TIP3     H2       HT       0.417000       1.00800           0
      3118 W2       1040     TIP3     OH2      OT      -0.834000       15.9994           0
      3119 W2       1040     TIP3     H1       HT       0.417000       1.00800           0
      3120 W2       1040     TIP3     H2       HT       0.417000       1.00800           0
      3121 W2       1041     TIP3     OH2      OT      -0.834000       15.9994           0
      3122 W2       1041     TIP3     H1       HT       0.417000       1.00800           0
      3123 W2       1041     TIP3     H2       HT       0.417000       1.00800           0
      3124 W2       1042     TIP3     OH2      OT      -0.834000       15.9994           0
      3125 W2       1042     TIP3     H1       HT       0.417000       1.00800           0
      3126 W2       1042     TIP3     H2       HT       0.417000       1.00800           0
      3127 W2       1043     TIP3     OH2      OT      -0.834000       15.9994           0
      3128 W2       1043     TIP3     H1       HT       0.417000       1.00800           0
      3129 W2       1043     TIP3     H2       HT       0.417000       1.00800           0
      3130 W2       1044     TIP3     OH2      OT      -0.834000       15.9994           0
      3131 W2       1044     TIP3     H1       HT       0.417000       1.00800           0
      3132 W2       1044     TIP3     H2       HT       0.417000       1.00800           0
      3133 W2       1045     TIP3     OH2      OT      -0.834000       15.9994           0
      3134 W2       1045     TIP3     H1       HT       0.417000       1.00800           0
      3135 W2       1045     TIP3     H2       HT       0.417000       1.00800           0
      3136 W2       1046     TIP3     OH2      OT      -0.834000       15.9994           0
      3137 W2       1046     TIP3     H1       HT       0.417000       1.00800           0
      3138 W2       1046     TIP3     H2       HT       0.417000       1.00800           0
      3139 W2       1047     TIP3     OH2      OT      -0.834000       15.9994           0
      3140 W2       1047     TIP3     H1       HT       0.417000       1.00800           0
      3141 W2       1047     TIP3     H2       HT       0.417000       1.00800           0
      3142 W2       1048     TIP3     OH2      OT      -0.834000       15.9994           0
      3143 W2       1048     TIP3     H1       HT       0.417000       1.00800           0
      3144 W2       1048     TIP3     H2       HT       0.417000       1.00800           0
      3145 W2       1049     TIP3     OH2      OT      -0.834000       15.9994           0
      3146 W2       1049     TIP3     H1       HT       0.417000       1.00800           0
      3147 W2       1049     TIP3     H2       HT       0.417000       1.00800           0
      3148 W2       1050     TIP3     OH2      OT      -0.834000       15.9994           0
      3149 W2       1050     TIP3     H1       HT       0.417000       1.00800           0
      3150 W2       1050     TIP3     H2       HT       0.417000       1.00800           0
      3151 W2       1051     TIP3     OH2      OT      -0.834000       15.9994           0
      3152 W2       1051     TIP3     H1       HT       0.417000       1.00800           0
      3153 W2       1051     TIP3     H2       HT       0.417000       1.00800           0
      3154 W2       1052     TIP3     OH2      OT      -0.834000       15.9994           0
      3155 W2       1052     TIP3     H1       HT       0.417000       1.00800           0
      3156 W2       1052     TIP3     H2       HT       0.417000       1.00800           0
      3157 W2       1053     TIP3     OH2      OT      -0.834000       15.9994           0
      3158 W2       1053     TIP3     H1       HT       0.417000       1.00800           0
      3159 W2       1053     TIP3     H2       HT       0.417000       1.00800           0
      3160 W2       1054     TIP3     OH2      OT      -0.834000       15.9994           0
      3161 W2       1054     TIP3     H1       HT       0.417000       1.00800           0
      3162 W2       1054     TIP3     H2       HT       0.417000       1.00800           0
      3163 W2       1055     TIP3     OH2      OT      -0.834000       15.9994           0
      3164 W2       1055     TIP3     H1       HT       0.417000       1.00800           0
      3165 W2       1055     TIP3     H2       HT       0.417000       1.00800           0
      3166 W2       1056     TIP3     OH2      OT      -0.834000       15.9994           0
      3167 W2       1056     TIP3     H1       HT       0.417000       1.00800           0
      3168 W2       1056     TIP3     H2       HT       0.417000       1.00800           0
      3169 W2       1057     TIP3     OH2      OT      -0.834000       15.9994           0
      3170 W2       1057     TIP3     H1       HT       0.417000       1.00800           0
      3171 W2       1057     TIP3     H2       HT       0.417000       1.00800           0
      3172 W2       1058     TIP3     OH2      OT      -0.834000       15.9994           0
      3173 W2       1058     TIP3     H1       HT       0.417000       1.00800           0
      3174 W2       1058     TIP3     H2       HT       0.417000       1.00800           0
      3175 W2       1059     TIP3     OH2      OT      -0.834000       15.9994           0
      3176 W2       1059     TIP3     H1       HT       0.417000       1.00800           0
      3177 W2       1059     TIP3     H2       HT       0.417000       1.00800           0
      3178 W2       1060     TIP3     OH2      OT      -0.834000       15.9994           0
      3179 W2       1060     TIP3     H1       HT       0.417000       1.00800           0
      3180 W2       1060     TIP3     H2       HT       0.417000       1.00800           0
      3181 W2       1061     TIP3     OH2      OT      -0.834000       15.9994           0
      3182 W2       1061     TIP3     H1       HT       0.417000       1.00800           0
      3183 W2       1061     TIP3     H2       HT       0.417000       1.00800           0
      3184 W2       1062     TIP3     OH2      OT      -0.834000       15.9994           0
      3185 W2       1062     TIP3     H1       HT       0.417000       1.00800           0
      3186 W2       1062     TIP3     H2       HT       0.417000       1.00800           0
      3187 W2       1063     TIP3     OH2      OT      -0.834000       15.9994           0
      3188 W2       1063     TIP3     H1       HT       0.417000       1.00800           0
      3189 W2       1063     TIP3     H2       HT       0.417000       1.00800           0
      3190 W2       1064     TIP3     OH2      OT      -0.834000       15.9994           0
      3191 W2       1064     TIP3     H1       HT       0.417000       1.00800           0
      3192 W2       1064     TIP3     H2       HT       0.417000       1.00800           0
      3193 W2       1065     TIP3     OH2      OT      -0.834000       15.9994           0
      3194 W2       1065     TIP3     H1       HT       0.417000       1.00800           0
      3195 W2       1065     TIP3     H2       HT       0.417000       1.00800           0
      3196 W2       1066     TIP3     OH2      OT      -0.834000       15.9994           0
      3197 W2       1066     TIP3     H1       HT       0.417000       1.00800           0
      3198 W2       1066     TIP3     H2       HT       0.417000       1.00800           0
      3199 W2       1067     TIP3     OH2      OT      -0.834000       15.9994           0
      3200 W2       1067     TIP3     H1       HT       0.417000       1.00800           0
      3201 W2       1067     TIP3     H2       HT       0.417000       1.00800           0
      3202 W2       1068     TIP3     OH2      OT      -0.834000       15.9994           0
      3203 W2       1068     TIP3     H1       HT       0.417000       1.00800           0
      3204 W2       1068     TIP3     H2       HT       0.417000       1.00800           0
      3205 W2       1069     TIP3     OH2      OT      -0.834000       15.9994           0
      3206 W2       1069     TIP3     H1       HT       0.417000       1.00800           0
      3207 W2       1069     TIP3     H2       HT       0.417000       1.00800           0
      3208 W2       1070     TIP3     OH2      OT      -0.834000       15.9994           0
      3209 W2       1070     TIP3     H1       HT       0.417000       1.00800           0
      3210 W2       1070     TIP3     H2       HT       0.417000       1.00800           0
      3211 W2       1071     TIP3     OH2      OT      -0.834000       15.9994           0
      3212 W2       1071     TIP3     H1       HT       0.417000       1.00800           0
      3213 W2       1071     TIP3     H2       HT       0.417000       1.00800           0
      3214 W2       1072     TIP3     OH2      OT      -0.834000       15.9994           0
      3215 W2       1072     TIP3     H1       HT       0.417000       1.00800           0
      3216 W2       1072     TIP3     H2       HT       0.417000       1.00800           0
      3217 W2       1073     TIP3     OH2      OT      -0.834000       15.9994           0
      3218 W2       1073     TIP3     H1       HT       0.417000       1.00800           0
      3219 W2       1073     TIP3     H2       HT       0.417000       1.00800           0
      3220 W2       1074     TIP3     OH2      OT      -0.834000       15.9994           0
      3221 W2       1074     TIP3     H1       HT       0.417000       1.00800           0
      3222 W2       1074     TIP3     H2       HT       0.417000       1.00800           0
      3223 W2       1075     TIP3     OH2      OT      -0.834000       15.9994           0
      3224 W2       1075     TIP3     H1       HT       0.417000       1.00800           0
      3225 W2       1075     TIP3     H2       HT       0.417000       1.00800           0
      3226 W2       1076     TIP3     OH2      OT      -0.834000       15.9994           0
      3227 W2       1076     TIP3     H1       HT       0.417000       1.00800           0
      3228 W2       1076     TIP3     H2       HT       0.417000       1.00800           0
      3229 W2       1077     TIP3     OH2      OT      -0.834000       15.9994           0
      3230 W2       1077     TIP3     H1       HT       0.417000       1.00800           0
      3231 W2       1077     TIP3     H2       HT       0.417000       1.00800           0
      3232 W2       1078     TIP3     OH2      OT      -0.834000       15.9994           0
      3233 W2       1078     TIP3     H1       HT       0.417000       1.00800           0
      3234 W2       1078     TIP3     H2       HT       0.417000       1.00800           0
      3235 W2       1079     TIP3     OH2      OT      -0.834000       15.9994           0
      3236 W2       1079     TIP3     H1       HT       0.417000       1.00800           0
      3237 W2       1079     TIP3     H2       HT       0.417000       1.00800           0
      3238 W2       1080     TIP3     OH2      OT      -0.834000       15.9994           0
      3239 W2       1080     TIP3     H1       HT       0.417000       1.00800           0
      3240 W2       1080     TIP3     H2       HT       0.417000       1.00800           0
      3241 W2       1081     TIP3     OH2      OT      -0.834000       15.9994           0
      3242 W2       1081     TIP3     H1       HT       0.417000       1.00800           0
      3243 W2       1081     TIP3     H2       HT       0.417000       1.00800           0
      3244 W2       1082     TIP3     OH2      OT      -0.834000       15.9994           0
      3245 W2       1082     TIP3     H1       HT       0.417000       1.00800           0
      3246 W2       1082     TIP3     H2       HT       0.417000       1.00800           0
      3247 W2       1083     TIP3     OH2      OT      -0.834000       15.9994           0
      3248 W2       1083     TIP3     H1       HT       0.417000       1.00800           0
      3249 W2       1083     TIP3     H2       HT       0.417000       1.00800           0
      3250 W2       1084     TIP3     OH2      OT      -0.834000       15.9994           0
      3251 W2       1084     TIP3     H1       HT       0.417000       1.00800           0
      3252 W2       1084     TIP3     H2       HT       0.417000       1.00800           0
      3253 W2       1085     TIP3     OH2      OT      -0.834000       15.9994           0
      3254 W2       1085     TIP3     H1       HT       0.417000       1.00800           0
      3255 W2       1085     TIP3     H2       HT       0.417000       1.00800           0
      3256 W2       1086     TIP3     OH2      OT      -0.834000       15.9994           0
      3257 W2       1086     TIP3     H1       HT       0.417000       1.00800           0
      3258 W2       1086     TIP3     H2       HT       0.417000       1.00800           0
      3259 W2       1087     TIP3     OH2      OT      -0.834000       15.9994           0
      3260 W2       1087     TIP3     H1       HT       0.417000       1.00800           0
      3261 W2       1087     TIP3     H2       HT       0.417000       1.00800           0
      3262 W2       1088     TIP3     OH2      OT      -0.834000       15.9994           0
      3263 W2       1088     TIP3     H1       HT       0.417000       1.00800           0
      3264 W2       1088     TIP3     H2       HT       0.417000       1.00800           0
      3265 W2       1089     TIP3     OH2      OT      -0.834000       15.9994           0
      3266 W2       1089     TIP3     H1       HT       0.417000       1.00800           0
      3267 W2       1089     TIP3     H2       HT       0.417000       1.00800           0
      3268 W2       1090     TIP3     OH2      OT      -0.834000       15.9994           0
      3269 W2       1090     TIP3     H1       HT       0.417000       1.00800           0
      3270 W2       1090     TIP3     H2       HT       0.417000       1.00800           0
      3271 W2       1091     TIP3     OH2      OT      -0.834000       15.9994           0
      3272 W2       1091     TIP3     H1       HT       0.417000       1.00800           0
      3273 W2       1091     TIP3     H2       HT       0.417000       1.00800           0
      3274 W2       1092     TIP3     OH2      OT      -0.834000       15.9994           0
      3275 W2       1092     TIP3     H1       HT       0.417000       1.00800           0
      3276 W2       1092     TIP3     H2       HT       0.417000       1.00800           0
      3277 W2       1093     TIP3     OH2      OT      -0.834000       15.9994           0
      3278 W2       1093     TIP3     H1       HT       0.417000       1.00800           0
      3279 W2       1093     TIP3     H2       HT       0.417000       1.00800           0
      3280 W2       1094     TIP3     OH2      OT      -0.834000       15.9994           0
      3281 W2       1094     TIP3     H1       HT       0.417000       1.00800           0
      3282 W2       1094     TIP3     H2       HT       0.417000       1.00800           0
      3283 W2       1095     TIP3     OH2      OT      -0.834000       15.9994           0
      3284 W2       1095     TIP3     H1       HT       0.417000       1.00800           0
      3285 W2       1095     TIP3     H2       HT       0.417000       1.00800           0
      3286 W2       1096     TIP3     OH2      OT      -0.834000       15.9994           0
      3287 W2       1096     TIP3     H1       HT       0.417000       1.00800           0
      3288 W2       1096     TIP3     H2       HT       0.417000       1.00800           0
      3289 W2       1097     TIP3     OH2      OT      -0.834000       15.9994           0
      3290 W2       1097     TIP3     H1       HT       0.417000       1.00800           0
      3291 W2       1097     TIP3     H2       HT       0.417000       1.00800           0
      3292 W2       1098     TIP3     OH2      OT      -0.834000       15.9994           0
      3293 W2       1098     TIP3     H1       HT       0.417000       1.00800           0
      3294 W2       1098     TIP3     H2       HT       0.417000       1.00800           0
      3295 W2       1099     TIP3     OH2      OT      -0.834000       15.9994           0
      3296 W2       1099     TIP3     H1       HT       0.417000       1.00800           0
      3297 W2       1099     TIP3     H2       HT       0.417000       1.00800           0
      3298 W2       1100     TIP3     OH2      OT      -0.834000       15.9994           0
      3299 W2       1100     TIP3     H1       HT       0.417000       1.00800           0
      3300 W2       1100     TIP3     H2       HT       0.417000       1.00800           0
      3301 W2       1101     TIP3     OH2      OT      -0.834000       15.9994           0
      3302 W2       1101     TIP3     H1       HT       0.417000       1.00800           0
      3303 W2       1101     TIP3     H2       HT       0.417000       1.00800           0
      3304 W2       1102     TIP3     OH2      OT      -0.834000       15.9994           0
      3305 W2       1102     TIP3     H1       HT       0.417000       1.00800           0
      3306 W2       1102     TIP3     H2       HT       0.417000       1.00800           0
      3307 W2       1103     TIP3     OH2      OT      -0.834000       15.9994           0
      3308 W2       1103     TIP3     H1       HT       0.417000       1.00800           0
      3309 W2       1103     TIP3     H2       HT       0.417000       1.00800           0
      3310 W2       1104     TIP3     OH2      OT      -0.834000       15.9994           0
      3311 W2       1104     TIP3     H1       HT       0.417000       1.00800           0
      3312 W2       1104     TIP3     H2       HT       0.417000       1.00800           0
      3313 W2       1105     TIP3     OH2      OT      -0.834000       15.9994           0
      3314 W2       1105     TIP3     H1       HT       0.417000       1.00800           0
      3315 W2       1105     TIP3     H2       HT       0.417000       1.00800           0
      3316 W2       1106     TIP3     OH2      OT      -0.834000       15.9994           0
      3317 W2       1106     TIP3     H1       HT       0.417000       1.00800           0
      3318 W2       1106     TIP3     H2       HT       0.417000       1.00800           0
      3319 W2       1107     TIP3     OH2      OT      -0.834000       15.9994           0
      3320 W2       1107     TIP3     H1       HT       0.417000       1.00800           0
      3321 W2       1107     TIP3     H2       HT       0.417000       1.00800           0
      3322 W2       1108     TIP3     OH2      OT      -0.834000       15.9994           0
      3323 W2       1108     TIP3     H1       HT       0.417000       1.00800           0
      3324 W2       1108     TIP3     H2       HT       0.417000       1.00800           0
      3325 W2       1109     TIP3     OH2      OT      -0.834000       15.9994           0
      3326 W2       1109     TIP3     H1       HT       0.417000       1.00800           0
      3327 W2       1109     TIP3     H2       HT       0.417000       1.00800           0
      3328 W2       1110     TIP3     OH2      OT      -0.834000       15.9994           0
      3329 W2       1110     TIP3     H1       HT       0.417000       1.00800           0
      3330 W2       1110     TIP3     H2       HT       0.417000       1.00800           0
      3331 W2       1111     TIP3     OH2      OT      -0.834000       15.9994           0
      3332 W2       1111     TIP3     H1       HT       0.417000       1.00800           0
      3333 W2       1111     TIP3     H2       HT       0.417000       1.00800           0
      3334 W2       1112     TIP3     OH2      OT      -0.834000       15.9994           0
      3335 W2       1112     TIP3     H1       HT       0.417000       1.00800           0
      3336 W2       1112     TIP3     H2       HT       0.417000       1.00800           0
      3337 W2       1113     TIP3     OH2      OT      -0.834000       15.9994           0
      3338 W2       1113     TIP3     H1       HT       0.417000       1.00800           0
      3339 W2       1113     TIP3     H2       HT       0.417000       1.00800           0
      3340 W2       1114     TIP3     OH2      OT      -0.834000       15.9994           0
      3341 W2       1114     TIP3     H1       HT       0.417000       1.00800           0
      3342 W2       1114     TIP3     H2       HT       0.417000       1.00800           0
      3343 W2       1115     TIP3     OH2      OT      -0.834000       15.9994           0
      3344 W2       1115     TIP3     H1       HT       0.417000       1.00800           0
      3345 W2       1115     TIP3     H2       HT       0.417000       1.00800           0
      3346 W2       1116     TIP3     OH2      OT      -0.834000       15.9994           0
      3347 W2       1116     TIP3     H1       HT       0.417000       1.00800           0
      3348 W2       1116     TIP3     H2       HT       0.417000       1.00800           0
      3349 W2       1117     TIP3     OH2      OT      -0.834000       15.9994           0
      3350 W2       1117     TIP3     H1       HT       0.417000       1.00800           0
      3351 W2       1117     TIP3     H2       HT       0.417000       1.00800           0
      3352 W2       1118     TIP3     OH2      OT      -0.834000       15.9994           0
      3353 W2       1118     TIP3     H1       HT       0.417000       1.00800           0
      3354 W2       1118     TIP3     H2       HT       0.417000       1.00800           0
      3355 W2       1119     TIP3     OH2      OT      -0.834000       15.9994           0
      3356 W2       1119     TIP3     H1       HT       0.417000       1.00800           0
      3357 W2       1119     TIP3     H2       HT       0.417000       1.00800           0
      3358 W2       1120     TIP3     OH2      OT      -0.834000       15.9994           0
      3359 W2       1120     TIP3     H1       HT       0.417000       1.00800           0
      3360 W2       1120     TIP3     H2       HT       0.417000       1.00800           0
      3361 W2       1121     TIP3     OH2      OT      -0.834000       15.9994           0
      3362 W2       1121     TIP3     H1       HT       0.417000       1.00800           0
      3363 W2       1121     TIP3     H2       HT       0.417000       1.00800           0
      3364 W2       1122     TIP3     OH2      OT      -0.834000       15.9994           0
      3365 W2       1122     TIP3     H1       HT       0.417000       1.00800           0
      3366 W2       1122     TIP3     H2       HT       0.417000       1.00800           0
      3367 W2       1123     TIP3     OH2      OT      -0.834000       15.9994           0
      3368 W2       1123     TIP3     H1       HT       0.417000       1.00800           0
      3369 W2       1123     TIP3     H2       HT       0.417000       1.00800           0
      3370 W2       1124     TIP3     OH2      OT      -0.834000       15.9994           0
      3371 W2       1124     TIP3     H1       HT       0.417000       1.00800           0
      3372 W2       1124     TIP3     H2       HT       0.417000       1.00800           0
      3373 W2       1125     TIP3     OH2      OT      -0.834000       15.9994           0
      3374 W2       1125     TIP3     H1       HT       0.417000       1.00800           0
      3375 W2       1125     TIP3     H2       HT       0.417000       1.00800           0
      3376 W2       1126     TIP3     OH2      OT      -0.834000       15.9994           0
      3377 W2       1126     TIP3     H1       HT       0.417000       1.00800           0
      3378 W2       1126     TIP3     H2       HT       0.417000       1.00800           0
      3379 W2       1127     TIP3     OH2      OT      -0.834000       15.9994           0
      3380 W2       1127     TIP3     H1       HT       0.417000       1.00800           0
      3381 W2       1127     TIP3     H2       HT       0.417000       1.00800           0
      3382 W2       1128     TIP3     OH2      OT      -0.834000       15.9994           0
      3383 W2       1128     TIP3     H1       HT       0.417000       1.00800           0
      3384 W2       1128     TIP3     H2       HT       0.417000       1.00800           0
      3385 W2       1129     TIP3     OH2      OT      -0.834000       15.9994           0
      3386 W2       1129     TIP3     H1       HT       0.417000       1.00800           0
      3387 W2       1129     TIP3     H2       HT       0.417000       1.00800           0
      3388 W2       1130     TIP3     OH2      OT      -0.834000       15.9994           0
      3389 W2       1130     TIP3     H1       HT       0.417000       1.00800           0
      3390 W2       1130     TIP3     H2       HT       0.417000       1.00800           0
      3391 W2       1131     TIP3     OH2      OT      -0.834000       15.9994           0
      3392 W2       1131     TIP3     H1       HT       0.417000       1.00800           0
      3393 W2       1131     TIP3     H2       HT       0.417000       1.00800           0
      3394 W2       1132     TIP3     OH2      OT      -0.834000       15.9994           0
      3395 W2       1132     TIP3     H1       HT       0.417000       1.00800           0
      3396 W2       1132     TIP3     H2       HT       0.417000       1.00800           0
      3397 W2       1133     TIP3     OH2      OT      -0.834000       15.9994           0
      3398 W2       1133     TIP3     H1       HT       0.417000       1.00800           0
      3399 W2       1133     TIP3     H2       HT       0.417000       1.00800           0
      3400 W2       1134     TIP3     OH2      OT      -0.834000       15.9994           0
      3401 W2       1134     TIP3     H1       HT       0.417000       1.00800           0
      3402 W2       1134     TIP3     H2       HT       0.417000       1.00800           0
      3403 W2       1135     TIP3     OH2      OT      -0.834000       15.9994           0
      3404 W2       1135     TIP3     H1       HT       0.417000       1.00800           0
      3405 W2       1135     TIP3     H2       HT       0.417000       1.00800           0
      3406 W2       1136     TIP3     OH2      OT      -0.834000       15.9994           0
      3407 W2       1136     TIP3     H1       HT       0.417000       1.00800           0
      3408 W2       1136     TIP3     H2       HT       0.417000       1.00800           0
      3409 W2       1137     TIP3     OH2      OT      -0.834000       15.9994           0
      3410 W2       1137     TIP3     H1       HT       0.417000       1.00800           0
      3411 W2       1137     TIP3     H2       HT       0.417000       1.00800           0
      3412 W2       1138     TIP3     OH2      OT      -0.834000       15.9994           0
      3413 W2       1138     TIP3     H1       HT       0.417000       1.00800           0
      3414 W2       1138     TIP3     H2       HT       0.417000       1.00800           0
      3415 W2       1139     TIP3     OH2      OT      -0.834000       15.9994           0
      3416 W2       1139     TIP3     H1       HT       0.417000       1.00800           0
      3417 W2       1139     TIP3     H2       HT       0.417000       1.00800           0
      3418 W2       1140     TIP3     OH2      OT      -0.834000       15.9994           0
      3419 W2       1140     TIP3     H1       HT       0.417000       1.00800           0
      3420 W2       1140     TIP3     H2       HT       0.417000       1.00800           0
      3421 W2       1141     TIP3     OH2      OT      -0.834000       15.9994           0
      3422 W2       1141     TIP3     H1       HT       0.417000       1.00800           0
      3423 W2       1141     TIP3     H2       HT       0.417000       1.00800           0
      3424 W2       1142     TIP3     OH2      OT      -0.834000       15.9994           0
      3425 W2       1142     TIP3     H1       HT       0.417000       1.00800           0
      3426 W2       1142     TIP3     H2       HT       0.417000       1.00800           0
      3427 W2       1143     TIP3     OH2      OT      -0.834000       15.9994           0
      3428 W2       1143     TIP3     H1       HT       0.417000       1.00800           0
      3429 W2       1143     TIP3     H2       HT       0.417000       1.00800           0
      3430 W2       1144     TIP3     OH2      OT      -0.834000       15.9994           0
      3431 W2       1144     TIP3     H1       HT       0.417000       1.00800           0
      3432 W2       1144     TIP3     H2       HT       0.417000       1.00800           0
      3433 W2       1145     TIP3     OH2      OT      -0.834000       15.9994           0
      3434 W2       1145     TIP3     H1       HT       0.417000       1.00800           0
      3435 W2       1145     TIP3     H2       HT       0.417000       1.00800           0
      3436 W2       1146     TIP3     OH2      OT      -0.834000       15.9994           0
      3437 W2       1146     TIP3     H1       HT       0.417000       1.00800           0
      3438 W2       1146     TIP3     H2       HT       0.417000       1.00800           0
      3439 W2       1147     TIP3     OH2      OT      -0.834000       15.9994           0
      3440 W2       1147     TIP3     H1       HT       0.417000       1.00800           0
      3441 W2       1147     TIP3     H2       HT       0.417000       1.00800           0
      3442 W2       1148     TIP3     OH2      OT      -0.834000       15.9994           0
      3443 W2       1148     TIP3     H1       HT       0.417000       1.00800           0
      3444 W2       1148     TIP3     H2       HT       0.417000       1.00800           0
      3445 W2       1149     TIP3     OH2      OT      -0.834000       15.9994           0
      3446 W2       1149     TIP3     H1       HT       0.417000       1.00800           0
      3447 W2       1149     TIP3     H2       HT       0.417000       1.00800           0
      3448 W2       1150     TIP3     OH2      OT      -0.834000       15.9994           0
      3449 W2       1150     TIP3     H1       HT       0.417000       1.00800           0
      3450 W2       1150     TIP3     H2       HT       0.417000       1.00800           0
      3451 W2       1151     TIP3     OH2      OT      -0.834000       15.9994           0
      3452 W2       1151     TIP3     H1       HT       0.417000       1.00800           0
      3453 W2       1151     TIP3     H2       HT       0.417000       1.00800           0
      3454 W2       1152     TIP3     OH2      OT      -0.834000       15.9994           0
      3455 W2       1152     TIP3     H1       HT       0.417000       1.00800           0
      3456 W2       1152     TIP3     H2       HT       0.417000       1.00800           0
      3457 W2       1153     TIP3     OH2      OT      -0.834000       15.9994           0
      3458 W2       1153     TIP3     H1       HT       0.417000       1.00800           0
      3459 W2       1153     TIP3     H2       HT       0.417000       1.00800           0
      3460 W2       1154     TIP3     OH2      OT      -0.834000       15.9994           0
      3461 W2       1154     TIP3     H1       HT       0.417000       1.00800           0
      3462 W2       1154     TIP3     H2       HT       0.417000       1.00800           0
      3463 W2       1155     TIP3     OH2      OT      -0.834000       15.9994           0
      3464 W2       1155     TIP3     H1       HT       0.417000       1.00800           0
      3465 W2       1155     TIP3     H2       HT       0.417000       1.00800           0
      3466 W2       1156     TIP3     OH2      OT      -0.834000       15.9994           0
      3467 W2       1156     TIP3     H1       HT       0.417000       1.00800           0
      3468 W2       1156     TIP3     H2       HT       0.417000       1.00800           0
      3469 W2       1157     TIP3     OH2      OT      -0.834000       15.9994           0
      3470 W2       1157     TIP3     H1       HT       0.417000       1.00800           0
      3471 W2       1157     TIP3     H2       HT       0.417000       1.00800           0
      3472 W2       1158     TIP3     OH2      OT      -0.834000       15.9994           0
      3473 W2       1158     TIP3     H1       HT       0.417000       1.00800           0
      3474 W2       1158     TIP3     H2       HT       0.417000       1.00800           0
      3475 W2       1159     TIP3     OH2      OT      -0.834000       15.9994           0
      3476 W2       1159     TIP3     H1       HT       0.417000       1.00800           0
      3477 W2       1159     TIP3     H2       HT       0.417000       1.00800           0
      3478 W2       1160     TIP3     OH2      OT      -0.834000       15.9994           0
      3479 W2       1160     TIP3     H1       HT       0.417000       1.00800           0
      3480 W2       1160     TIP3     H2       HT       0.417000       1.00800           0
      3481 W2       1161     TIP3     OH2      OT      -0.834000       15.9994           0
      3482 W2       1161     TIP3     H1       HT       0.417000       1.00800           0
      3483 W2       1161     TIP3     H2       HT       0.417000       1.00800           0
      3484 W2       1162     TIP3     OH2      OT      -0.834000       15.9994           0
      3485 W2       1162     TIP3     H1       HT       0.417000       1.00800           0
      3486 W2       1162     TIP3     H2       HT       0.417000       1.00800           0
      3487 W2       1163     TIP3     OH2      OT      -0.834000       15.9994           0
      3488 W2       1163     TIP3     H1       HT       0.417000       1.00800           0
      3489 W2       1163     TIP3     H2       HT       0.417000       1.00800           0
      3490 W2       1164     TIP3     OH2      OT      -0.834000       15.9994           0
      3491 W2       1164     TIP3     H1       HT       0.417000       1.00800           0
      3492 W2       1164     TIP3     H2       HT       0.417000       1.00800           0
      3493 W2       1165     TIP3     OH2      OT      -0.834000       15.9994           0
      3494 W2       1165     TIP3     H1       HT       0.417000       1.00800           0
      3495 W2       1165     TIP3     H2       HT       0.417000       1.00800           0
      3496 W2       1166     TIP3     OH2      OT      -0.834000       15.9994           0
      3497 W2       1166     TIP3     H1       HT       0.417000       1.00800           0
      3498 W2       1166     TIP3     H2       HT       0.417000       1.00800           0
      3499 W2       1167     TIP3     OH2      OT      -0.834000       15.9994           0
      3500 W2       1167     TIP3     H1       HT       0.417000       1.00800           0
      3501 W2       1167     TIP3     H2       HT       0.417000       1.00800           0
      3502 W2       1168     TIP3     OH2      OT      -0.834000       15.9994           0
      3503 W2       1168     TIP3     H1       HT       0.417000       1.00800           0
      3504 W2       1168     TIP3     H2       HT       0.417000       1.00800           0
      3505 W2       1169     TIP3     OH2      OT      -0.834000       15.9994           0
      3506 W2       1169     TIP3     H1       HT       0.417000       1.00800           0
      3507 W2       1169     TIP3     H2       HT       0.417000       1.00800           0
      3508 W2       1170     TIP3     OH2      OT      -0.834000       15.9994           0
      3509 W2       1170     TIP3     H1       HT       0.417000       1.00800           0
      3510 W2       1170     TIP3     H2       HT       0.417000       1.00800           0
      3511 W2       1171     TIP3     OH2      OT      -0.834000       15.9994           0
      3512 W2       1171     TIP3     H1       HT       0.417000       1.00800           0
      3513 W2       1171     TIP3     H2       HT       0.417000       1.00800           0
      3514 W2       1172     TIP3     OH2      OT      -0.834000       15.9994           0
      3515 W2       1172     TIP3     H1       HT       0.417000       1.00800           0
      3516 W2       1172     TIP3     H2       HT       0.417000       1.00800           0
      3517 W2       1173     TIP3     OH2      OT      -0.834000       15.9994           0
      3518 W2       1173     TIP3     H1       HT       0.417000       1.00800           0
      3519 W2       1173     TIP3     H2       HT       0.417000       1.00800           0
      3520 W2       1174     TIP3     OH2      OT      -0.834000       15.9994           0
      3521 W2       1174     TIP3     H1       HT       0.417000       1.00800           0
      3522 W2       1174     TIP3     H2       HT       0.417000       1.00800           0
      3523 W2       1175     TIP3     OH2      OT      -0.834000       15.9994           0
      3524 W2       1175     TIP3     H1       HT       0.417000       1.00800           0
      3525 W2       1175     TIP3     H2       HT       0.417000       1.00800           0
      3526 W2       1176     TIP3     OH2      OT      -0.834000       15.9994           0
      3527 W2       1176     TIP3     H1       HT       0.417000       1.00800           0
      3528 W2       1176     TIP3     H2       HT       0.417000       1.00800           0
      3529 W2       1177     TIP3     OH2      OT      -0.834000       15.9994           0
      3530 W2       1177     TIP3     H1       HT       0.417000       1.00800           0
      3531 W2       1177     TIP3     H2       HT       0.417000       1.00800           0
      3532 W2       1178     TIP3     OH2      OT      -0.834000       15.9994           0
      3533 W2       1178     TIP3     H1       HT       0.417000       1.00800           0
      3534 W2       1178     TIP3     H2       HT       0.417000       1.00800           0
      3535 W2       1179     TIP3     OH2      OT      -0.834000       15.9994           0
      3536 W2       1179     TIP3     H1       HT       0.417000       1.00800           0
      3537 W2       1179     TIP3     H2       HT       0.417000       1.00800           0
      3538 W2       1180     TIP3     OH2      OT      -0.834000       15.9994           0
      3539 W2       1180     TIP3     H1       HT       0.417000       1.00800           0
      3540 W2       1180     TIP3     H2       HT       0.417000       1.00800           0
      3541 W2       1181     TIP3     OH2      OT      -0.834000       15.9994           0
      3542 W2       1181     TIP3     H1       HT       0.417000       1.00800           0
      3543 W2       1181     TIP3     H2       HT       0.417000       1.00800           0
      3544 W2       1182     TIP3     OH2      OT      -0.834000       15.9994           0
      3545 W2       1182     TIP3     H1       HT       0.417000       1.00800           0
      3546 W2       1182     TIP3     H2       HT       0.417000       1.00800           0
      3547 W2       1183     TIP3     OH2      OT      -0.834000       15.9994           0
      3548 W2       1183     TIP3     H1       HT       0.417000       1.00800           0
      3549 W2       1183     TIP3     H2       HT       0.417000       1.00800           0
      3550 W2       1184     TIP3     OH2      OT      -0.834000       15.9994           0
      3551 W2       1184     TIP3     H1       HT       0.417000       1.00800           0
      3552 W2       1184     TIP3     H2       HT       0.417000       1.00800           0
      3553 W2       1185     TIP3     OH2      OT      -0.834000       15.9994           0
      3554 W2       1185     TIP3     H1       HT       0.417000       1.00800           0
      3555 W2       1185     TIP3     H2       HT       0.417000       1.00800           0
      3556 W2       1186     TIP3     OH2      OT      -0.834000       15.9994           0
      3557 W2       1186     TIP3     H1       HT       0.417000       1.00800           0
      3558 W2       1186     TIP3     H2       HT       0.417000       1.00800           0
      3559 W2       1187     TIP3     OH2      OT      -0.834000       15.9994           0
      3560 W2       1187     TIP3     H1       HT       0.417000       1.00800           0
      3561 W2       1187     TIP3     H2       HT       0.417000       1.00800           0
      3562 W2       1188     TIP3     OH2      OT      -0.834000       15.9994           0
      3563 W2       1188     TIP3     H1       HT       0.417000       1.00800           0
      3564 W2       1188     TIP3     H2       HT       0.417000       1.00800           0
      3565 W2       1189     TIP3     OH2      OT      -0.834000       15.9994           0
      3566 W2       1189     TIP3     H1       HT       0.417000       1.00800           0
      3567 W2       1189     TIP3     H2       HT       0.417000       1.00800           0
      3568 W2       1190     TIP3     OH2      OT      -0.834000       15.9994           0
      3569 W2       1190     TIP3     H1       HT       0.417000       1.00800           0
      3570 W2       1190     TIP3     H2       HT       0.417000       1.00800           0
      3571 W2       1191     TIP3     OH2      OT      -0.834000       15.9994           0
      3572 W2       1191     TIP3     H1       HT       0.417000       1.00800           0
      3573 W2       1191     TIP3     H2       HT       0.417000       1.00800           0
      3574 W2       1192     TIP3     OH2      OT      -0.834000       15.9994           0
      3575 W2       1192     TIP3     H1       HT       0.417000       1.00800           0
      3576 W2       1192     TIP3     H2       HT       0.417000       1.00800           0
      3577 W2       1193     TIP3     OH2      OT      -0.834000       15.9994           0
      3578 W2       1193     TIP3     H1       HT       0.417000       1.00800           0
      3579 W2       1193     TIP3     H2       HT       0.417000       1.00800           0
      3580 W2       1194     TIP3     OH2      OT      -0.834000       15.9994           0
      3581 W2       1194     TIP3     H1       HT       0.417000       1.00800           0
      3582 W2       1194     TIP3     H2       HT       0.417000       1.00800           0
      3583 W2       1195     TIP3     OH2      OT      -0.834000       15.9994           0
      3584 W2       1195     TIP3     H1       HT       0.417000       1.00800           0
      3585 W2       1195     TIP3     H2       HT       0.417000       1.00800           0
      3586 W2       1196     TIP3     OH2      OT      -0.834000       15.9994           0
      3587 W2       1196     TIP3     H1       HT       0.417000       1.00800           0
      3588 W2       1196     TIP3     H2       HT       0.417000       1.00800           0
      3589 W2       1197     TIP3     OH2      OT      -0.834000       15.9994           0
      3590 W2       1197     TIP3     H1       HT       0.417000       1.00800           0
      3591 W2       1197     TIP3     H2       HT       0.417000       1.00800           0
      3592 W2       1198     TIP3     OH2      OT      -0.834000       15.9994           0
      3593 W2       1198     TIP3     H1       HT       0.417000       1.00800           0
      3594 W2       1198     TIP3     H2       HT       0.417000       1.00800           0
      3595 W2       1199     TIP3     OH2      OT      -0.834000       15.9994           0
      3596 W2       1199     TIP3     H1       HT       0.417000       1.00800           0
      3597 W2       1199     TIP3     H2       HT       0.417000       1.00800           0
      3598 W2       1200     TIP3     OH2      OT      -0.834000       15.9994           0
      3599 W2       1200     TIP3     H1       HT       0.417000       1.00800           0
      3600 W2       1200     TIP3     H2       HT       0.417000       1.00800           0
      3601 W2       1201     TIP3     OH2      OT      -0.834000       15.9994           0
      3602 W2       1201     TIP3     H1       HT       0.417000       1.00800           0
      3603 W2       1201     TIP3     H2       HT       0.417000       1.00800           0
      3604 W2       1202     TIP3     OH2      OT      -0.834000       15.9994           0
      3605 W2       1202     TIP3     H1       HT       0.417000       1.00800           0
      3606 W2       1202     TIP3     H2       HT       0.417000       1.00800           0
      3607 W2       1203     TIP3     OH2      OT      -0.834000       15.9994           0
      3608 W2       1203     TIP3     H1       HT       0.417000       1.00800           0
      3609 W2       1203     TIP3     H2       HT       0.417000       1.00800           0
      3610 W2       1204     TIP3     OH2      OT      -0.834000       15.9994           0
      3611 W2       1204     TIP3     H1       HT       0.417000       1.00800           0
      3612 W2       1204     TIP3     H2       HT       0.417000       1.00800           0
      3613 W2       1205     TIP3     OH2      OT      -0.834000       15.9994           0
      3614 W2       1205     TIP3     H1       HT       0.417000       1.00800           0
      3615 W2       1205     TIP3     H2       HT       0.417000       1.00800           0
      3616 W2       1206     TIP3     OH2      OT      -0.834000       15.9994           0
      3617 W2       1206     TIP3     H1       HT       0.417000       1.00800           0
      3618 W2       1206     TIP3     H2       HT       0.417000       1.00800           0
      3619 W2       1207     TIP3     OH2      OT      -0.834000       15.9994           0
      3620 W2       1207     TIP3     H1       HT       0.417000       1.00800           0
      3621 W2       1207     TIP3     H2       HT       0.417000       1.00800           0
      3622 W2       1208     TIP3     OH2      OT      -0.834000       15.9994           0
      3623 W2       1208     TIP3     H1       HT       0.417000       1.00800           0
      3624 W2       1208     TIP3     H2       HT       0.417000       1.00800           0
      3625 W2       1209     TIP3     OH2      OT      -0.834000       15.9994           0
      3626 W2       1209     TIP3     H1       HT       0.417000       1.00800           0
      3627 W2       1209     TIP3     H2       HT       0.417000       1.00800           0
      3628 W2       1210     TIP3     OH2      OT      -0.834000       15.9994           0
      3629 W2       1210     TIP3     H1       HT       0.417000       1.00800           0
      3630 W2       1210     TIP3     H2       HT       0.417000       1.00800           0
      3631 W2       1211     TIP3     OH2      OT      -0.834000       15.9994           0
      3632 W2       1211     TIP3     H1       HT       0.417000       1.00800           0
      3633 W2       1211     TIP3     H2       HT       0.417000       1.00800           0
      3634 W2       1212     TIP3     OH2      OT      -0.834000       15.9994           0
      3635 W2       1212     TIP3     H1       HT       0.417000       1.00800           0
      3636 W2       1212     TIP3     H2       HT       0.417000       1.00800           0
      3637 W2       1213     TIP3     OH2      OT      -0.834000       15.9994           0
      3638 W2       1213     TIP3     H1       HT       0.417000       1.00800           0
      3639 W2       1213     TIP3     H2       HT       0.417000       1.00800           0
      3640 W2       1214     TIP3     OH2      OT      -0.834000       15.9994           0
      3641 W2       1214     TIP3     H1       HT       0.417000       1.00800           0
      3642 W2       1214     TIP3     H2       HT       0.417000       1.00800           0
      3643 W2       1215     TIP3     OH2      OT      -0.834000       15.9994           0
      3644 W2       1215     TIP3     H1       HT       0.417000       1.00800           0
      3645 W2       1215     TIP3     H2       HT       0.417000       1.00800           0
      3646 W2       1216     TIP3     OH2      OT      -0.834000       15.9994           0
      3647 W2       1216     TIP3     H1       HT       0.417000       1.00800           0
      3648 W2       1216     TIP3     H2       HT       0.417000       1.00800           0
      3649 W2       1217     TIP3     OH2      OT      -0.834000       15.9994           0
      3650 W2       1217     TIP3     H1       HT       0.417000       1.00800           0
      3651 W2       1217     TIP3     H2       HT       0.417000       1.00800           0
      3652 W2       1218     TIP3     OH2      OT      -0.834000       15.9994           0
      3653 W2       1218     TIP3     H1       HT       0.417000       1.00800           0
      3654 W2       1218     TIP3     H2       HT       0.417000       1.00800           0
      3655 W2       1219     TIP3     OH2      OT      -0.834000       15.9994           0
      3656 W2       1219     TIP3     H1       HT       0.417000       1.00800           0
      3657 W2       1219     TIP3     H2       HT       0.417000       1.00800           0
      3658 W2       1220     TIP3     OH2      OT      -0.834000       15.9994           0
      3659 W2       1220     TIP3     H1       HT       0.417000       1.00800           0
      3660 W2       1220     TIP3     H2       HT       0.417000       1.00800           0
      3661 W2       1221     TIP3     OH2      OT      -0.834000       15.9994           0
      3662 W2       1221     TIP3     H1       HT       0.417000       1.00800           0
      3663 W2       1221     TIP3     H2       HT       0.417000       1.00800           0
      3664 W2       1222     TIP3     OH2      OT      -0.834000       15.9994           0
      3665 W2       1222     TIP3     H1       HT       0.417000       1.00800           0
      3666 W2       1222     TIP3     H2       HT       0.417000       1.00800           0
      3667 W2       1223     TIP3     OH2      OT      -0.834000       15.9994           0
      3668 W2       1223     TIP3     H1       HT       0.417000       1.00800           0
      3669 W2       1223     TIP3     H2       HT       0.417000       1.00800           0
      3670 W2       1224     TIP3     OH2      OT      -0.834000       15.9994           0
      3671 W2       1224     TIP3     H1       HT       0.417000       1.00800           0
      3672 W2       1224     TIP3     H2       HT       0.417000       1.00800           0
      3673 W2       1225     TIP3     OH2      OT      -0.834000       15.9994           0
      3674 W2       1225     TIP3     H1       HT       0.417000       1.00800           0
      3675 W2       1225     TIP3     H2       HT       0.417000       1.00800           0
      3676 W2       1226     TIP3     OH2      OT      -0.834000       15.9994           0
      3677 W2       1226     TIP3     H1       HT       0.417000       1.00800           0
      3678 W2       1226     TIP3     H2       HT       0.417000       1.00800           0
      3679 W2       1227     TIP3     OH2      OT      -0.834000       15.9994           0
      3680 W2       1227     TIP3     H1       HT       0.417000       1.00800           0
      3681 W2       1227     TIP3     H2       HT       0.417000       1.00800           0
      3682 W2       1228     TIP3     OH2      OT      -0.834000       15.9994           0
      3683 W2       1228     TIP3     H1       HT       0.417000       1.00800           0
      3684 W2       1228     TIP3     H2       HT       0.417000       1.00800           0
      3685 W2       1229     TIP3     OH2      OT      -0.834000       15.9994           0
      3686 W2       1229     TIP3     H1       HT       0.417000       1.00800           0
      3687 W2       1229     TIP3     H2       HT       0.417000       1.00800           0
      3688 W2       1230     TIP3     OH2      OT      -0.834000       15.9994           0
      3689 W2       1230     TIP3     H1       HT       0.417000       1.00800           0
      3690 W2       1230     TIP3     H2       HT       0.417000       1.00800           0
      3691 W2       1231     TIP3     OH2      OT      -0.834000       15.9994           0
      3692 W2       1231     TIP3     H1       HT       0.417000       1.00800           0
      3693 W2       1231     TIP3     H2       HT       0.417000       1.00800           0
      3694 W2       1232     TIP3     OH2      OT      -0.834000       15.9994           0
      3695 W2       1232     TIP3     H1       HT       0.417000       1.00800           0
      3696 W2       1232     TIP3     H2       HT       0.417000       1.00800           0
      3697 W2       1233     TIP3     OH2      OT      -0.834000       15.9994           0
      3698 W2       1233     TIP3     H1       HT       0.417000       1.00800           0
      3699 W2       1233     TIP3     H2       HT       0.417000       1.00800           0
      3700 W2       1234     TIP3     OH2      OT      -0.834000       15.9994           0
      3701 W2       1234     TIP3     H1       HT       0.417000       1.00800           0
      3702 W2       1234     TIP3     H2       HT       0.417000       1.00800           0
      3703 W2       1235     TIP3     OH2      OT      -0.834000       15.9994           0
      3704 W2       1235     TIP3     H1       HT       0.417000       1.00800           0
      3705 W2       1235     TIP3     H2       HT       0.417000       1.00800           0
      3706 W2       1236     TIP3     OH2      OT      -0.834000       15.9994           0
      3707 W2       1236     TIP3     H1       HT       0.417000       1.00800           0
      3708 W2       1236     TIP3     H2       HT       0.417000       1.00800           0
      3709 W2       1237     TIP3     OH2      OT      -0.834000       15.9994           0
      3710 W2       1237     TIP3     H1       HT       0.417000       1.00800           0
      3711 W2       1237     TIP3     H2       HT       0.417000       1.00800           0
      3712 W2       1238     TIP3     OH2      OT      -0.834000       15.9994           0
      3713 W2       1238     TIP3     H1       HT       0.417000       1.00800           0
      3714 W2       1238     TIP3     H2       HT       0.417000       1.00800           0
      3715 W2       1239     TIP3     OH2      OT      -0.834000       15.9994           0
      3716 W2       1239     TIP3     H1       HT       0.417000       1.00800           0
      3717 W2       1239     TIP3     H2       HT       0.417000       1.00800           0
      3718 W2       1240     TIP3     OH2      OT      -0.834000       15.9994           0
      3719 W2       1240     TIP3     H1       HT       0.417000       1.00800           0
      3720 W2       1240     TIP3     H2       HT       0.417000       1.00800           0
      3721 W2       1241     TIP3     OH2      OT      -0.834000       15.9994           0
      3722 W2       1241     TIP3     H1       HT       0.417000       1.00800           0
      3723 W2       1241     TIP3     H2       HT       0.417000       1.00800           0
      3724 W2       1242     TIP3     OH2      OT      -0.834000       15.9994           0
      3725 W2       1242     TIP3     H1       HT       0.417000       1.00800           0
      3726 W2       1242     TIP3     H2       HT       0.417000       1.00800           0
      3727 W2       1243     TIP3     OH2      OT      -0.834000       15.9994           0
      3728 W2       1243     TIP3     H1       HT       0.417000       1.00800           0
      3729 W2       1243     TIP3     H2       HT       0.417000       1.00800           0
      3730 W2       1244     TIP3     OH2      OT      -0.834000       15.9994           0
      3731 W2       1244     TIP3     H1       HT       0.417000       1.00800           0
      3732 W2       1244     TIP3     H2       HT       0.417000       1.00800           0
      3733 W2       1245     TIP3     OH2      OT      -0.834000       15.9994           0
      3734 W2       1245     TIP3     H1       HT       0.417000       1.00800           0
      3735 W2       1245     TIP3     H2       HT       0.417000       1.00800           0
      3736 W2       1246     TIP3     OH2      OT      -0.834000       15.9994           0
      3737 W2       1246     TIP3     H1       HT       0.417000       1.00800           0
      3738 W2       1246     TIP3     H2       HT       0.417000       1.00800           0
      3739 W2       1247     TIP3     OH2      OT      -0.834000       15.9994           0
      3740 W2       1247     TIP3     H1       HT       0.417000       1.00800           0
      3741 W2       1247     TIP3     H2       HT       0.417000       1.00800           0
      3742 W2       1248     TIP3     OH2      OT      -0.834000       15.9994           0
      3743 W2       1248     TIP3     H1       HT       0.417000       1.00800           0
      3744 W2       1248     TIP3     H2       HT       0.417000       1.00800           0
      3745 W2       1249     TIP3     OH2      OT      -0.834000       15.9994           0
      3746 W2       1249     TIP3     H1       HT       0.417000       1.00800           0
      3747 W2       1249     TIP3     H2       HT       0.417000       1.00800           0
      3748 W2       1250     TIP3     OH2      OT      -0.834000       15.9994           0
      3749 W2       1250     TIP3     H1       HT       0.417000       1.00800           0
      3750 W2       1250     TIP3     H2       HT       0.417000       1.00800           0
      3751 W2       1251     TIP3     OH2      OT      -0.834000       15.9994           0
      3752 W2       1251     TIP3     H1       HT       0.417000       1.00800           0
      3753 W2       1251     TIP3     H2       HT       0.417000       1.00800           0
      3754 W2       1252     TIP3     OH2      OT      -0.834000       15.9994           0
      3755 W2       1252     TIP3     H1       HT       0.417000       1.00800           0
      3756 W2       1252     TIP3     H2       HT       0.417000       1.00800           0
      3757 W2       1253     TIP3     OH2      OT      -0.834000       15.9994           0
      3758 W2       1253     TIP3     H1       HT       0.417000       1.00800           0
      3759 W2       1253     TIP3     H2       HT       0.417000       1.00800           0
      3760 W2       1254     TIP3     OH2      OT      -0.834000       15.9994           0
      3761 W2       1254     TIP3     H1       HT       0.417000       1.00800           0
      3762 W2       1254     TIP3     H2       HT       0.417000       1.00800           0
      3763 W2       1255     TIP3     OH2      OT      -0.834000       15.9994           0
      3764 W2       1255     TIP3     H1       HT       0.417000       1.00800           0
      3765 W2       1255     TIP3     H2       HT       0.417000       1.00800           0
      3766 W2       1256     TIP3     OH2      OT      -0.834000       15.9994           0
      3767 W2       1256     TIP3     H1       HT       0.417000       1.00800           0
      3768 W2       1256     TIP3     H2       HT       0.417000       1.00800           0
      3769 W2       1257     TIP3     OH2      OT      -0.834000       15.9994           0
      3770 W2       1257     TIP3     H1       HT       0.417000       1.00800           0
      3771 W2       1257     TIP3     H2       HT       0.417000       1.00800           0
      3772 W2       1258     TIP3     OH2      OT      -0.834000       15.9994           0
      3773 W2       1258     TIP3     H1       HT       0.417000       1.00800           0
      3774 W2       1258     TIP3     H2       HT       0.417000       1.00800           0
      3775 W2       1259     TIP3     OH2      OT      -0.834000       15.9994           0
      3776 W2       1259     TIP3     H1       HT       0.417000       1.00800           0
      3777 W2       1259     TIP3     H2       HT       0.417000       1.00800           0
      3778 W2       1260     TIP3     OH2      OT      -0.834000       15.9994           0
      3779 W2       1260     TIP3     H1       HT       0.417000       1.00800           0
      3780 W2       1260     TIP3     H2       HT       0.417000       1.00800           0
      3781 W2       1261     TIP3     OH2      OT      -0.834000       15.9994           0
      3782 W2       1261     TIP3     H1       HT       0.417000       1.00800           0
      3783 W2       1261     TIP3     H2       HT       0.417000       1.00800           0
      3784 W2       1262     TIP3     OH2      OT      -0.834000       15.9994           0
      3785 W2       1262     TIP3     H1       HT       0.417000       1.00800           0
      3786 W2       1262     TIP3     H2       HT       0.417000       1.00800           0
      3787 W2       1263     TIP3     OH2      OT      -0.834000       15.9994           0
      3788 W2       1263     TIP3     H1       HT       0.417000       1.00800           0
      3789 W2       1263     TIP3     H2       HT       0.417000       1.00800           0
      3790 W2       1264     TIP3     OH2      OT      -0.834000       15.9994           0
      3791 W2       1264     TIP3     H1       HT       0.417000       1.00800           0
      3792 W2       1264     TIP3     H2       HT       0.417000       1.00800           0
      3793 W2       1265     TIP3     OH2      OT      -0.834000       15.9994           0
      3794 W2       1265     TIP3     H1       HT       0.417000       1.00800           0
      3795 W2       1265     TIP3     H2       HT       0.417000       1.00800           0
      3796 W2       1266     TIP3     OH2      OT      -0.834000       15.9994           0
      3797 W2       1266     TIP3     H1       HT       0.417000       1.00800           0
      3798 W2       1266     TIP3     H2       HT       0.417000       1.00800           0
      3799 W2       1267     TIP3     OH2      OT      -0.834000       15.9994           0
      3800 W2       1267     TIP3     H1       HT       0.417000       1.00800           0
      3801 W2       1267     TIP3     H2       HT       0.417000       1.00800           0
      3802 W2       1268     TIP3     OH2      OT      -0.834000       15.9994           0
      3803 W2       1268     TIP3     H1       HT       0.417000       1.00800           0
      3804 W2       1268     TIP3     H2       HT       0.417000       1.00800           0
      3805 W2       1269     TIP3     OH2      OT      -0.834000       15.9994           0
      3806 W2       1269     TIP3     H1       HT       0.417000       1.00800           0
      3807 W2       1269     TIP3     H2       HT       0.417000       1.00800           0
      3808 W2       1270     TIP3     OH2      OT      -0.834000       15.9994           0
      3809 W2       1270     TIP3     H1       HT       0.417000       1.00800           0
      3810 W2       1270     TIP3     H2       HT       0.417000       1.00800           0
      3811 W2       1271     TIP3     OH2      OT      -0.834000       15.9994           0
      3812 W2       1271     TIP3     H1       HT       0.417000       1.00800           0
      3813 W2       1271     TIP3     H2       HT       0.417000       1.00800           0
      3814 W2       1272     TIP3     OH2      OT      -0.834000       15.9994           0
      3815 W2       1272     TIP3     H1       HT       0.417000       1.00800           0
      3816 W2       1272     TIP3     H2       HT       0.417000       1.00800           0
      3817 W2       1273     TIP3     OH2      OT      -0.834000       15.9994           0
      3818 W2       1273     TIP3     H1       HT       0.417000       1.00800           0
      3819 W2       1273     TIP3     H2       HT       0.417000       1.00800           0
      3820 W2       1274     TIP3     OH2      OT      -0.834000       15.9994           0
      3821 W2       1274     TIP3     H1       HT       0.417000       1.00800           0
      3822 W2       1274     TIP3     H2       HT       0.417000       1.00800           0
      3823 W2       1275     TIP3     OH2      OT      -0.834000       15.9994           0
      3824 W2       1275     TIP3     H1       HT       0.417000       1.00800           0
      3825 W2       1275     TIP3     H2       HT       0.417000       1.00800           0
      3826 W2       1276     TIP3     OH2      OT      -0.834000       15.9994           0
      3827 W2       1276     TIP3     H1       HT       0.417000       1.00800           0
      3828 W2       1276     TIP3     H2       HT       0.417000       1.00800           0
      3829 W2       1277     TIP3     OH2      OT      -0.834000       15.9994           0
      3830 W2       1277     TIP3     H1       HT       0.417000       1.00800           0
      3831 W2       1277     TIP3     H2       HT       0.417000       1.00800           0
      3832 W2       1278     TIP3     OH2      OT      -0.834000       15.9994           0
      3833 W2       1278     TIP3     H1       HT       0.417000       1.00800           0
      3834 W2       1278     TIP3     H2       HT       0.417000       1.00800           0
      3835 W2       1279     TIP3     OH2      OT      -0.834000       15.9994           0
      3836 W2       1279     TIP3     H1       HT       0.417000       1.00800           0
      3837 W2       1279     TIP3     H2       HT       0.417000       1.00800           0
      3838 W2       1280     TIP3     OH2      OT      -0.834000       15.9994           0
      3839 W2       1280     TIP3     H1       HT       0.417000       1.00800           0
      3840 W2       1280     TIP3     H2       HT       0.417000       1.00800           0
      3841 W2       1281     TIP3     OH2      OT      -0.834000       15.9994           0
      3842 W2       1281     TIP3     H1       HT       0.417000       1.00800           0
      3843 W2       1281     TIP3     H2       HT       0.417000       1.00800           0
      3844 W2       1282     TIP3     OH2      OT      -0.834000       15.9994           0
      3845 W2       1282     TIP3     H1       HT       0.417000       1.00800           0
      3846 W2       1282     TIP3     H2       HT       0.417000       1.00800           0
      3847 W2       1283     TIP3     OH2      OT      -0.834000       15.9994           0
      3848 W2       1283     TIP3     H1       HT       0.417000       1.00800           0
      3849 W2       1283     TIP3     H2       HT       0.417000       1.00800           0
      3850 W2       1284     TIP3     OH2      OT      -0.834000       15.9994           0
      3851 W2       1284     TIP3     H1       HT       0.417000       1.00800           0
      3852 W2       1284     TIP3     H2       HT       0.417000       1.00800           0
      3853 W2       1285     TIP3     OH2      OT      -0.834000       15.9994           0
      3854 W2       1285     TIP3     H1       HT       0.417000       1.00800           0
      3855 W2       1285     TIP3     H2       HT       0.417000       1.00800           0
      3856 W2       1286     TIP3     OH2      OT      -0.834000       15.9994           0
      3857 W2       1286     TIP3     H1       HT       0.417000       1.00800           0
      3858 W2       1286     TIP3     H2       HT       0.417000       1.00800           0
      3859 W2       1287     TIP3     OH2      OT      -0.834000       15.9994           0
      3860 W2       1287     TIP3     H1       HT       0.417000       1.00800           0
      3861 W2       1287     TIP3     H2       HT       0.417000       1.00800           0
      3862 W2       1288     TIP3     OH2      OT      -0.834000       15.9994           0
      3863 W2       1288     TIP3     H1       HT       0.417000       1.00800           0
      3864 W2       1288     TIP3     H2       HT       0.417000       1.00800           0
      3865 W2       1289     TIP3     OH2      OT      -0.834000       15.9994           0
      3866 W2       1289     TIP3     H1       HT       0.417000       1.00800           0
      3867 W2       1289     TIP3     H2       HT       0.417000       1.00800           0
      3868 W2       1290     TIP3     OH2      OT      -0.834000       15.9994           0
      3869 W2       1290     TIP3     H1       HT       0.417000       1.00800           0
      3870 W2       1290     TIP3     H2       HT       0.417000       1.00800           0
      3871 W2       1291     TIP3     OH2      OT      -0.834000       15.9994           0
      3872 W2       1291     TIP3     H1       HT       0.417000       1.00800           0
      3873 W2       1291     TIP3     H2       HT       0.417000       1.00800           0
      3874 W2       1292     TIP3     OH2      OT      -0.834000       15.9994           0
      3875 W2       1292     TIP3     H1       HT       0.417000       1.00800           0
      3876 W2       1292     TIP3     H2       HT       0.417000       1.00800           0
      3877 W2       1293     TIP3     OH2      OT      -0.834000       15.9994           0
      3878 W2       1293     TIP3     H1       HT       0.417000       1.00800           0
      3879 W2       1293     TIP3     H2       HT       0.417000       1.00800           0
      3880 W2       1294     TIP3     OH2      OT      -0.834000       15.9994           0
      3881 W2       1294     TIP3     H1       HT       0.417000       1.00800           0
      3882 W2       1294     TIP3     H2       HT       0.417000       1.00800           0
      3883 W2       1295     TIP3     OH2      OT      -0.834000       15.9994           0
      3884 W2       1295     TIP3     H1       HT       0.417000       1.00800           0
      3885 W2       1295     TIP3     H2       HT       0.417000       1.00800           0
      3886 W2       1296     TIP3     OH2      OT      -0.834000       15.9994           0
      3887 W2       1296     TIP3     H1       HT       0.417000       1.00800           0
      3888 W2       1296     TIP3     H2       HT       0.417000       1.00800           0
      3889 W2       1297     TIP3     OH2      OT      -0.834000       15.9994           0
      3890 W2       1297     TIP3     H1       HT       0.417000       1.00800           0
      3891 W2       1297     TIP3     H2       HT       0.417000       1.00800           0
      3892 W2       1298     TIP3     OH2      OT      -0.834000       15.9994           0
      3893 W2       1298     TIP3     H1       HT       0.417000       1.00800           0
      3894 W2       1298     TIP3     H2       HT       0.417000       1.00800           0
      3895 W2       1299     TIP3     OH2      OT      -0.834000       15.9994           0
      3896 W2       1299     TIP3     H1       HT       0.417000       1.00800           0
      3897 W2       1299     TIP3     H2       HT       0.417000       1.00800           0
      3898 W2       1300     TIP3     OH2      OT      -0.834000       15.9994           0
      3899 W2       1300     TIP3     H1       HT       0.417000       1.00800           0
      3900 W2       1300     TIP3     H2       HT       0.417000       1.00800           0
      3901 W2       1301     TIP3     OH2      OT      -0.834000       15.9994           0
      3902 W2       1301     TIP3     H1       HT       0.417000       1.00800           0
      3903 W2       1301     TIP3     H2       HT       0.417000       1.00800           0
      3904 W2       1302     TIP3     OH2      OT      -0.834000       15.9994           0
      3905 W2       1302     TIP3     H1       HT       0.417000       1.00800           0
      3906 W2       1302     TIP3     H2       HT       0.417000       1.00800           0
      3907 W2       1303     TIP3     OH2      OT      -0.834000       15.9994           0
      3908 W2       1303     TIP3     H1       HT       0.417000       1.00800           0
      3909 W2       1303     TIP3     H2       HT       0.417000       1.00800           0
      3910 W2       1304     TIP3     OH2      OT      -0.834000       15.9994           0
      3911 W2       1304     TIP3     H1       HT       0.417000       1.00800           0
      3912 W2       1304     TIP3     H2       HT       0.417000       1.00800           0
      3913 W2       1305     TIP3     OH2      OT      -0.834000       15.9994           0
      3914 W2       1305     TIP3     H1       HT       0.417000       1.00800           0
      3915 W2       1305     TIP3     H2       HT       0.417000       1.00800           0
      3916 W2       1306     TIP3     OH2      OT      -0.834000       15.9994           0
      3917 W2       1306     TIP3     H1       HT       0.417000       1.00800           0
      3918 W2       1306     TIP3     H2       HT       0.417000       1.00800           0
      3919 W2       1307     TIP3     OH2      OT      -0.834000       15.9994           0
      3920 W2       1307     TIP3     H1       HT       0.417000       1.00800           0
      3921 W2       1307     TIP3     H2       HT       0.417000       1.00800           0
      3922 W2       1308     TIP3     OH2      OT      -0.834000       15.9994           0
      3923 W2       1308     TIP3     H1       HT       0.417000       1.00800           0
      3924 W2       1308     TIP3     H2       HT       0.417000       1.00800           0
      3925 W2       1309     TIP3     OH2      OT      -0.834000       15.9994           0
      3926 W2       1309     TIP3     H1       HT       0.417000       1.00800           0
      3927 W2       1309     TIP3     H2       HT       0.417000       1.00800           0
      3928 W2       1310     TIP3     OH2      OT      -0.834000       15.9994           0
      3929 W2       1310     TIP3     H1       HT       0.417000       1.00800           0
      3930 W2       1310     TIP3     H2       HT       0.417000       1.00800           0
      3931 W2       1311     TIP3     OH2      OT      -0.834000       15.9994           0
      3932 W2       1311     TIP3     H1       HT       0.417000       1.00800           0
      3933 W2       1311     TIP3     H2       HT       0.417000       1.00800           0
      3934 W2       1312     TIP3     OH2      OT      -0.834000       15.9994           0
      3935 W2       1312     TIP3     H1       HT       0.417000       1.00800           0
      3936 W2       1312     TIP3     H2       HT       0.417000       1.00800           0
      3937 W2       1313     TIP3     OH2      OT      -0.834000       15.9994           0
      3938 W2       1313     TIP3     H1       HT       0.417000       1.00800           0
      3939 W2       1313     TIP3     H2       HT       0.417000       1.00800           0
      3940 W2       1314     TIP3     OH2      OT      -0.834000       15.9994           0
      3941 W2       1314     TIP3     H1       HT       0.417000       1.00800           0
      3942 W2       1314     TIP3     H2       HT       0.417000       1.00800           0
      3943 W2       1315     TIP3     OH2      OT      -0.834000       15.9994           0
      3944 W2       1315     TIP3     H1       HT       0.417000       1.00800           0
      3945 W2       1315     TIP3     H2       HT       0.417000       1.00800           0
      3946 W2       1316     TIP3     OH2      OT      -0.834000       15.9994           0
      3947 W2       1316     TIP3     H1       HT       0.417000       1.00800           0
      3948 W2       1316     TIP3     H2       HT       0.417000       1.00800           0
      3949 W2       1317     TIP3     OH2      OT      -0.834000       15.9994           0
      3950 W2       1317     TIP3     H1       HT       0.417000       1.00800           0
      3951 W2       1317     TIP3     H2       HT       0.417000       1.00800           0
      3952 W2       1318     TIP3     OH2      OT      -0.834000       15.9994           0
      3953 W2       1318     TIP3     H1       HT       0.417000       1.00800           0
      3954 W2       1318     TIP3     H2       HT       0.417000       1.00800           0
      3955 W2       1319     TIP3     OH2      OT      -0.834000       15.9994           0
      3956 W2       1319     TIP3     H1       HT       0.417000       1.00800           0
      3957 W2       1319     TIP3     H2       HT       0.417000       1.00800           0
      3958 W2       1320     TIP3     OH2      OT      -0.834000       15.9994           0
      3959 W2       1320     TIP3     H1       HT       0.417000       1.00800           0
      3960 W2       1320     TIP3     H2       HT       0.417000       1.00800           0
      3961 W2       1321     TIP3     OH2      OT      -0.834000       15.9994           0
      3962 W2       1321     TIP3     H1       HT       0.417000       1.00800           0
      3963 W2       1321     TIP3     H2       HT       0.417000       1.00800           0
      3964 W2       1322     TIP3     OH2      OT      -0.834000       15.9994           0
      3965 W2       1322     TIP3     H1       HT       0.417000       1.00800           0
      3966 W2       1322     TIP3     H2       HT       0.417000       1.00800           0
      3967 W2       1323     TIP3     OH2      OT      -0.834000       15.9994           0
      3968 W2       1323     TIP3     H1       HT       0.417000       1.00800           0
      3969 W2       1323     TIP3     H2       HT       0.417000       1.00800           0
      3970 W2       1324     TIP3     OH2      OT      -0.834000       15.9994           0
      3971 W2       1324     TIP3     H1       HT       0.417000       1.00800           0
      3972 W2       1324     TIP3     H2       HT       0.417000       1.00800           0
      3973 W2       1325     TIP3     OH2      OT      -0.834000       15.9994           0
      3974 W2       1325     TIP3     H1       HT       0.417000       1.00800           0
      3975 W2       1325     TIP3     H2       HT       0.417000       1.00800           0
      3976 W2       1326     TIP3     OH2      OT      -0.834000       15.9994           0
      3977 W2       1326     TIP3     H1       HT       0.417000       1.00800           0
      3978 W2       1326     TIP3     H2       HT       0.417000       1.00800           0
      3979 W2       1327     TIP3     OH2      OT      -0.834000       15.9994           0
      3980 W2       1327     TIP3     H1       HT       0.417000       1.00800           0
      3981 W2       1327     TIP3     H2       HT       0.417000       1.00800           0
      3982 W2       1328     TIP3     OH2      OT      -0.834000       15.9994           0
      3983 W2       1328     TIP3     H1       HT       0.417000       1.00800           0
      3984 W2       1328     TIP3     H2       HT       0.417000       1.00800           0
      3985 W2       1329     TIP3     OH2      OT      -0.834000       15.9994           0
      3986 W2       1329     TIP3     H1       HT       0.417000       1.00800           0
      3987 W2       1329     TIP3     H2       HT       0.417000       1.00800           0
      3988 W2       1330     TIP3     OH2      OT      -0.834000       15.9994           0
      3989 W2       1330     TIP3     H1       HT       0.417000       1.00800           0
      3990 W2       1330     TIP3     H2       HT       0.417000       1.00800           0
      3991 W2       1331     TIP3     OH2      OT      -0.834000       15.9994           0
      3992 W2       1331     TIP3     H1       HT       0.417000       1.00800           0
      3993 W2       1331     TIP3     H2       HT       0.417000       1.00800           0
      3994 W2       1332     TIP3     OH2      OT      -0.834000       15.9994           0
      3995 W2       1332     TIP3     H1       HT       0.417000       1.00800           0
      3996 W2       1332     TIP3     H2       HT       0.417000       1.00800           0
      3997 W2       1333     TIP3     OH2      OT      -0.834000       15.9994           0
      3998 W2       1333     TIP3     H1       HT       0.417000       1.00800           0
      3999 W2       1333     TIP3     H2       HT       0.417000       1.00800           0
      4000 W2       1334     TIP3     OH2      OT      -0.834000       15.9994           0
      4001 W2       1334     TIP3     H1       HT       0.417000       1.00800           0
      4002 W2       1334     TIP3     H2       HT       0.417000       1.00800           0
      4003 W2       1335     TIP3     OH2      OT      -0.834000       15.9994           0
      4004 W2       1335     TIP3     H1       HT       0.417000       1.00800           0
      4005 W2       1335     TIP3     H2       HT       0.417000       1.00800           0
      4006 W2       1336     TIP3     OH2      OT      -0.834000       15.9994           0
      4007 W2       1336     TIP3     H1       HT       0.417000       1.00800           0
      4008 W2       1336     TIP3     H2       HT       0.417000       1.00800           0
      4009 W2       1337     TIP3     OH2      OT      -0.834000       15.9994           0
      4010 W2       1337     TIP3     H1       HT       0.417000       1.00800           0
      4011 W2       1337     TIP3     H2       HT       0.417000       1.00800           0
      4012 W2       1338     TIP3     OH2      OT      -0.834000       15.9994           0
      4013 W2       1338     TIP3     H1       HT       0.417000       1.00800           0
      4014 W2       1338     TIP3     H2       HT       0.417000       1.00800           0
      4015 W2       1339     TIP3     OH2      OT      -0.834000       15.9994           0
      4016 W2       1339     TIP3     H1       HT       0.417000       1.00800           0
      4017 W2       1339     TIP3     H2       HT       0.417000       1.00800           0
      4018 W2       1340     TIP3     OH2      OT      -0.834000       15.9994           0
      4019 W2       1340     TIP3     H1       HT       0.417000       1.00800           0
      4020 W2       1340     TIP3     H2       HT       0.417000       1.00800           0
      4021 W2       1341     TIP3     OH2      OT      -0.834000       15.9994           0
      4022 W2       1341     TIP3     H1       HT       0.417000       1.00800           0
      4023 W2       1341     TIP3     H2       HT       0.417000       1.00800           0
      4024 W2       1342     TIP3     OH2      OT      -0.834000       15.9994           0
      4025 W2       1342     TIP3     H1       HT       0.417000       1.00800           0
      4026 W2       1342     TIP3     H2       HT       0.417000       1.00800           0
      4027 W2       1343     TIP3     OH2      OT      -0.834000       15.9994           0
      4028 W2       1343     TIP3     H1       HT       0.417000       1.00800           0
      4029 W2       1343     TIP3     H2       HT       0.417000       1.00800           0
      4030 W2       1344     TIP3     OH2      OT      -0.834000       15.9994           0
      4031 W2       1344     TIP3     H1       HT       0.417000       1.00800           0
      4032 W2       1344     TIP3     H2       HT       0.417000       1.00800           0
      4033 W2       1345     TIP3     OH2      OT      -0.834000       15.9994           0
      4034 W2       1345     TIP3     H1       HT       0.417000       1.00800           0
      4035 W2       1345     TIP3     H2       HT       0.417000       1.00800           0
      4036 W2       1346     TIP3     OH2      OT      -0.834000       15.9994           0
      4037 W2       1346     TIP3     H1       HT       0.417000       1.00800           0
      4038 W2       1346     TIP3     H2       HT       0.417000       1.00800           0
      4039 W2       1347     TIP3     OH2      OT      -0.834000       15.9994           0
      4040 W2       1347     TIP3     H1       HT       0.417000       1.00800           0
      4041 W2       1347     TIP3     H2       HT       0.417000       1.00800           0
      4042 W2       1348     TIP3     OH2      OT      -0.834000       15.9994           0
      4043 W2       1348     TIP3     H1       HT       0.417000       1.00800           0
      4044 W2       1348     TIP3     H2       HT       0.417000       1.00800           0
      4045 W2       1349     TIP3     OH2      OT      -0.834000       15.9994           0
      4046 W2       1349     TIP3     H1       HT       0.417000       1.00800           0
      4047 W2       1349     TIP3     H2       HT       0.417000       1.00800           0
      4048 W2       1350     TIP3     OH2      OT      -0.834000       15.9994           0
      4049 W2       1350     TIP3     H1       HT       0.417000       1.00800           0
      4050 W2       1350     TIP3     H2       HT       0.417000       1.00800           0
      4051 W2       1351     TIP3     OH2      OT      -0.834000       15.9994           0
      4052 W2       1351     TIP3     H1       HT       0.417000       1.00800           0
      4053 W2       1351     TIP3     H2       HT       0.417000       1.00800           0
      4054 W2       1352     TIP3     OH2      OT      -0.834000       15.9994           0
      4055 W2       1352     TIP3     H1       HT       0.417000       1.00800           0
      4056 W2       1352     TIP3     H2       HT       0.417000       1.00800           0
      4057 W2       1353     TIP3     OH2      OT      -0.834000       15.9994           0
      4058 W2       1353     TIP3     H1       HT       0.417000       1.00800           0
      4059 W2       1353     TIP3     H2       HT       0.417000       1.00800           0
      4060 W2       1354     TIP3     OH2      OT      -0.834000       15.9994           0
      4061 W2       1354     TIP3     H1       HT       0.417000       1.00800           0
      4062 W2       1354     TIP3     H2       HT       0.417000       1.00800           0
      4063 W2       1355     TIP3     OH2      OT      -0.834000       15.9994           0
      4064 W2       1355     TIP3     H1       HT       0.417000       1.00800           0
      4065 W2       1355     TIP3     H2       HT       0.417000       1.00800           0
      4066 W2       1356     TIP3     OH2      OT      -0.834000       15.9994           0
      4067 W2       1356     TIP3     H1       HT       0.417000       1.00800           0
      4068 W2       1356     TIP3     H2       HT       0.417000       1.00800           0
      4069 W2       1357     TIP3     OH2      OT      -0.834000       15.9994           0
      4070 W2       1357     TIP3     H1       HT       0.417000       1.00800           0
      4071 W2       1357     TIP3     H2       HT       0.417000       1.00800           0
      4072 W2       1358     TIP3     OH2      OT      -0.834000       15.9994           0
      4073 W2       1358     TIP3     H1       HT       0.417000       1.00800           0
      4074 W2       1358     TIP3     H2       HT       0.417000       1.00800           0
      4075 W2       1359     TIP3     OH2      OT      -0.834000       15.9994           0
      4076 W2       1359     TIP3     H1       HT       0.417000       1.00800           0
      4077 W2       1359     TIP3     H2       HT       0.417000       1.00800           0
      4078 W2       1360     TIP3     OH2      OT      -0.834000       15.9994           0
      4079 W2       1360     TIP3     H1       HT       0.417000       1.00800           0
      4080 W2       1360     TIP3     H2       HT       0.417000       1.00800           0
      4081 W2       1361     TIP3     OH2      OT      -0.834000       15.9994           0
      4082 W2       1361     TIP3     H1       HT       0.417000       1.00800           0
      4083 W2       1361     TIP3     H2       HT       0.417000       1.00800           0
      4084 W2       1362     TIP3     OH2      OT      -0.834000       15.9994           0
      4085 W2       1362     TIP3     H1       HT       0.417000       1.00800           0
      4086 W2       1362     TIP3     H2       HT       0.417000       1.00800           0
      4087 W2       1363     TIP3     OH2      OT      -0.834000       15.9994           0
      4088 W2       1363     TIP3     H1       HT       0.417000       1.00800           0
      4089 W2       1363     TIP3     H2       HT       0.417000       1.00800           0
      4090 W2       1364     TIP3     OH2      OT      -0.834000       15.9994           0
      4091 W2       1364     TIP3     H1       HT       0.417000       1.00800           0
      4092 W2       1364     TIP3     H2       HT       0.417000       1.00800           0
      4093 W2       1365     TIP3     OH2      OT      -0.834000       15.9994           0
      4094 W2       1365     TIP3     H1       HT       0.417000       1.00800           0
      4095 W2       1365     TIP3     H2       HT       0.417000       1.00800           0
      4096 W2       1366     TIP3     OH2      OT      -0.834000       15.9994           0
      4097 W2       1366     TIP3     H1       HT       0.417000       1.00800           0
      4098 W2       1366     TIP3     H2       HT       0.417000       1.00800           0
      4099 W2       1367     TIP3     OH2      OT      -0.834000       15.9994           0
      4100 W2       1367     TIP3     H1       HT       0.417000       1.00800           0
      4101 W2       1367     TIP3     H2       HT       0.417000       1.00800           0
      4102 W2       1368     TIP3     OH2      OT      -0.834000       15.9994           0
      4103 W2       1368     TIP3     H1       HT       0.417000       1.00800           0
      4104 W2       1368     TIP3     H2       HT       0.417000       1.00800           0
      4105 W2       1369     TIP3     OH2      OT      -0.834000       15.9994           0
      4106 W2       1369     TIP3     H1       HT       0.417000       1.00800           0
      4107 W2       1369     TIP3     H2       HT       0.417000       1.00800           0
      4108 W2       1370     TIP3     OH2      OT      -0.834000       15.9994           0
      4109 W2       1370     TIP3     H1       HT       0.417000       1.00800           0
      4110 W2       1370     TIP3     H2       HT       0.417000       1.00800           0
      4111 W2       1371     TIP3     OH2      OT      -0.834000       15.9994           0
      4112 W2       1371     TIP3     H1       HT       0.417000       1.00800           0
      4113 W2       1371     TIP3     H2       HT       0.417000       1.00800           0
      4114 W2       1372     TIP3     OH2      OT      -0.834000       15.9994           0
      4115 W2       1372     TIP3     H1       HT       0.417000       1.00800           0
      4116 W2       1372     TIP3     H2       HT       0.417000       1.00800           0
      4117 W2       1373     TIP3     OH2      OT      -0.834000       15.9994           0
      4118 W2       1373     TIP3     H1       HT       0.417000       1.00800           0
      4119 W2       1373     TIP3     H2       HT       0.417000       1.00800           0
      4120 W2       1374     TIP3     OH2      OT      -0.834000       15.9994           0
      4121 W2       1374     TIP3     H1       HT       0.417000       1.00800           0
      4122 W2       1374     TIP3     H2       HT       0.417000       1.00800           0
      4123 W2       1375     TIP3     OH2      OT      -0.834000       15.9994           0
      4124 W2       1375     TIP3     H1       HT       0.417000       1.00800           0
      4125 W2       1375     TIP3     H2       HT       0.417000       1.00800           0
      4126 W2       1376     TIP3     OH2      OT      -0.834000       15.9994           0
      4127 W2       1376     TIP3     H1       HT       0.417000       1.00800           0
      4128 W2       1376     TIP3     H2       HT       0.417000       1.00800           0
      4129 W2       1377     TIP3     OH2      OT      -0.834000       15.9994           0
      4130 W2       1377     TIP3     H1       HT       0.417000       1.00800           0
      4131 W2       1377     TIP3     H2       HT       0.417000       1.00800           0
      4132 W2       1378     TIP3     OH2      OT      -0.834000       15.9994           0
      4133 W2       1378     TIP3     H1       HT       0.417000       1.00800           0
      4134 W2       1378     TIP3     H2       HT       0.417000       1.00800           0
      4135 W2       1379     TIP3     OH2      OT      -0.834000       15.9994           0
      4136 W2       1379     TIP3     H1       HT       0.417000       1.00800           0
      4137 W2       1379     TIP3     H2       HT       0.417000       1.00800           0
      4138 W2       1380     TIP3     OH2      OT      -0.834000       15.9994           0
      4139 W2       1380     TIP3     H1       HT       0.417000       1.00800           0
      4140 W2       1380     TIP3     H2       HT       0.417000       1.00800           0
      4141 W2       1381     TIP3     OH2      OT      -0.834000       15.9994           0
      4142 W2       1381     TIP3     H1       HT       0.417000       1.00800           0
      4143 W2       1381     TIP3     H2       HT       0.417000       1.00800           0
      4144 W2       1382     TIP3     OH2      OT      -0.834000       15.9994           0
      4145 W2       1382     TIP3     H1       HT       0.417000       1.00800           0
      4146 W2       1382     TIP3     H2       HT       0.417000       1.00800           0
      4147 W2       1383     TIP3     OH2      OT      -0.834000       15.9994           0
      4148 W2       1383     TIP3     H1       HT       0.417000       1.00800           0
      4149 W2       1383     TIP3     H2       HT       0.417000       1.00800           0
      4150 W2       1384     TIP3     OH2      OT      -0.834000       15.9994           0
      4151 W2       1384     TIP3     H1       HT       0.417000       1.00800           0
      4152 W2       1384     TIP3     H2       HT       0.417000       1.00800           0
      4153 W2       1385     TIP3     OH2      OT      -0.834000       15.9994           0
      4154 W2       1385     TIP3     H1       HT       0.417000       1.00800           0
      4155 W2       1385     TIP3     H2       HT       0.417000       1.00800           0
      4156 W2       1386     TIP3     OH2      OT      -0.834000       15.9994           0
      4157 W2       1386     TIP3     H1       HT       0.417000       1.00800           0
      4158 W2       1386     TIP3     H2       HT       0.417000       1.00800           0
      4159 W2       1387     TIP3     OH2      OT      -0.834000       15.9994           0
      4160 W2       1387     TIP3     H1       HT       0.417000       1.00800           0
      4161 W2       1387     TIP3     H2       HT       0.417000       1.00800           0
      4162 W2       1388     TIP3     OH2      OT      -0.834000       15.9994           0
      4163 W2       1388     TIP3     H1       HT       0.417000       1.00800           0
      4164 W2       1388     TIP3     H2       HT       0.417000       1.00800           0
      4165 W2       1389     TIP3     OH2      OT      -0.834000       15.9994           0
      4166 W2       1389     TIP3     H1       HT       0.417000       1.00800           0
      4167 W2       1389     TIP3     H2       HT       0.417000       1.00800           0
      4168 W2       1390     TIP3     OH2      OT      -0.834000       15.9994           0
      4169 W2       1390     TIP3     H1       HT       0.417000       1.00800           0
      4170 W2       1390     TIP3     H2       HT       0.417000       1.00800           0
      4171 W2       1391     TIP3     OH2      OT      -0.834000       15.9994           0
      4172 W2       1391     TIP3     H1       HT       0.417000       1.00800           0
      4173 W2       1391     TIP3     H2       HT       0.417000       1.00800           0
      4174 W2       1392     TIP3     OH2      OT      -0.834000       15.9994           0
      4175 W2       1392     TIP3     H1       HT       0.417000       1.00800           0
      4176 W2       1392     TIP3     H2       HT       0.417000       1.00800           0
      4177 W2       1393     TIP3     OH2      OT      -0.834000       15.9994           0
      4178 W2       1393     TIP3     H1       HT       0.417000       1.00800           0
      4179 W2       1393     TIP3     H2       HT       0.417000       1.00800           0
      4180 W2       1394     TIP3     OH2      OT      -0.834000       15.9994           0
      4181 W2       1394     TIP3     H1       HT       0.417000       1.00800           0
      4182 W2       1394     TIP3     H2       HT       0.417000       1.00800           0
      4183 W2       1395     TIP3     OH2      OT      -0.834000       15.9994           0
      4184 W2       1395     TIP3     H1       HT       0.417000       1.00800           0
      4185 W2       1395     TIP3     H2       HT       0.417000       1.00800           0
      4186 W2       1396     TIP3     OH2      OT      -0.834000       15.9994           0
      4187 W2       1396     TIP3     H1       HT       0.417000       1.00800           0
      4188 W2       1396     TIP3     H2       HT       0.417000       1.00800           0
      4189 W2       1397     TIP3     OH2      OT      -0.834000       15.9994           0
      4190 W2       1397     TIP3     H1       HT       0.417000       1.00800           0
      4191 W2       1397     TIP3     H2       HT       0.417000       1.00800           0
      4192 W2       1398     TIP3     OH2      OT      -0.834000       15.9994           0
      4193 W2       1398     TIP3     H1       HT       0.417000       1.00800           0
      4194 W2       1398     TIP3     H2       HT       0.417000       1.00800           0
      4195 W2       1399     TIP3     OH2      OT      -0.834000       15.9994           0
      4196 W2       1399     TIP3     H1       HT       0.417000       1.00800           0
      4197 W2       1399     TIP3     H2       HT       0.417000       1.00800           0
      4198 W2       1400     TIP3     OH2      OT      -0.834000       15.9994           0
      4199 W2       1400     TIP3     H1       HT       0.417000       1.00800           0
      4200 W2       1400     TIP3     H2       HT       0.417000       1.00800           0
      4201 W2       1401     TIP3     OH2      OT      -0.834000       15.9994           0
      4202 W2       1401     TIP3     H1       HT       0.417000       1.00800           0
      4203 W2       1401     TIP3     H2       HT       0.417000       1.00800           0
      4204 W2       1402     TIP3     OH2      OT      -0.834000       15.9994           0
      4205 W2       1402     TIP3     H1       HT       0.417000       1.00800           0
      4206 W2       1402     TIP3     H2       HT       0.417000       1.00800           0
      4207 W2       1403     TIP3     OH2      OT      -0.834000       15.9994           0
      4208 W2       1403     TIP3     H1       HT       0.417000       1.00800           0
      4209 W2       1403     TIP3     H2       HT       0.417000       1.00800           0
      4210 W2       1404     TIP3     OH2      OT      -0.834000       15.9994           0
      4211 W2       1404     TIP3     H1       HT       0.417000       1.00800           0
      4212 W2       1404     TIP3     H2       HT       0.417000       1.00800           0
      4213 W2       1405     TIP3     OH2      OT      -0.834000       15.9994           0
      4214 W2       1405     TIP3     H1       HT       0.417000       1.00800           0
      4215 W2       1405     TIP3     H2       HT       0.417000       1.00800           0
      4216 W2       1406     TIP3     OH2      OT      -0.834000       15.9994           0
      4217 W2       1406     TIP3     H1       HT       0.417000       1.00800           0
      4218 W2       1406     TIP3     H2       HT       0.417000       1.00800           0
      4219 W2       1407     TIP3     OH2      OT      -0.834000       15.9994           0
      4220 W2       1407     TIP3     H1       HT       0.417000       1.00800           0
      4221 W2       1407     TIP3     H2       HT       0.417000       1.00800           0
      4222 W2       1408     TIP3     OH2      OT      -0.834000       15.9994           0
      4223 W2       1408     TIP3     H1       HT       0.417000       1.00800           0
      4224 W2       1408     TIP3     H2       HT       0.417000       1.00800           0
      4225 W2       1409     TIP3     OH2      OT      -0.834000       15.9994           0
      4226 W2       1409     TIP3     H1       HT       0.417000       1.00800           0
      4227 W2       1409     TIP3     H2       HT       0.417000       1.00800           0
      4228 W2       1410     TIP3     OH2      OT      -0.834000       15.9994           0
      4229 W2       1410     TIP3     H1       HT       0.417000       1.00800           0
      4230 W2       1410     TIP3     H2       HT       0.417000       1.00800           0
      4231 W2       1411     TIP3     OH2      OT      -0.834000       15.9994           0
      4232 W2       1411     TIP3     H1       HT       0.417000       1.00800           0
      4233 W2       1411     TIP3     H2       HT       0.417000       1.00800           0
      4234 W2       1412     TIP3     OH2      OT      -0.834000       15.9994           0
      4235 W2       1412     TIP3     H1       HT       0.417000       1.00800           0
      4236 W2       1412     TIP3     H2       HT       0.417000       1.00800           0
      4237 W2       1413     TIP3     OH2      OT      -0.834000       15.9994           0
      4238 W2       1413     TIP3     H1       HT       0.417000       1.00800           0
      4239 W2       1413     TIP3     H2       HT       0.417000       1.00800           0
      4240 W2       1414     TIP3     OH2      OT      -0.834000       15.9994           0
      4241 W2       1414     TIP3     H1       HT       0.417000       1.00800           0
      4242 W2       1414     TIP3     H2       HT       0.417000       1.00800           0
      4243 W2       1415     TIP3     OH2      OT      -0.834000       15.9994           0
      4244 W2       1415     TIP3     H1       HT       0.417000       1.00800           0
      4245 W2       1415     TIP3     H2       HT       0.417000       1.00800           0
      4246 W2       1416     TIP3     OH2      OT      -0.834000       15.9994           0
      4247 W2       1416     TIP3     H1       HT       0.417000       1.00800           0
      4248 W2       1416     TIP3     H2       HT       0.417000       1.00800           0
      4249 W2       1417     TIP3     OH2      OT      -0.834000       15.9994           0
      4250 W2       1417     TIP3     H1       HT       0.417000       1.00800           0
      4251 W2       1417     TIP3     H2       HT       0.417000       1.00800           0
      4252 W2       1418     TIP3     OH2      OT      -0.834000       15.9994           0
      4253 W2       1418     TIP3     H1       HT       0.417000       1.00800           0
      4254 W2       1418     TIP3     H2       HT       0.417000       1.00800           0
      4255 W2       1419     TIP3     OH2      OT      -0.834000       15.9994           0
      4256 W2       1419     TIP3     H1       HT       0.417000       1.00800           0
      4257 W2       1419     TIP3     H2       HT       0.417000       1.00800           0
      4258 W2       1420     TIP3     OH2      OT      -0.834000       15.9994           0
      4259 W2       1420     TIP3     H1       HT       0.417000       1.00800           0
      4260 W2       1420     TIP3     H2       HT       0.417000       1.00800           0
      4261 W2       1421     TIP3     OH2      OT      -0.834000       15.9994           0
      4262 W2       1421     TIP3     H1       HT       0.417000       1.00800           0
      4263 W2       1421     TIP3     H2       HT       0.417000       1.00800           0
      4264 W2       1422     TIP3     OH2      OT      -0.834000       15.9994           0
      4265 W2       1422     TIP3     H1       HT       0.417000       1.00800           0
      4266 W2       1422     TIP3     H2       HT       0.417000       1.00800           0
      4267 W2       1423     TIP3     OH2      OT      -0.834000       15.9994           0
      4268 W2       1423     TIP3     H1       HT       0.417000       1.00800           0
      4269 W2       1423     TIP3     H2       HT       0.417000       1.00800           0
      4270 W2       1424     TIP3     OH2      OT      -0.834000       15.9994           0
      4271 W2       1424     TIP3     H1       HT       0.417000       1.00800           0
      4272 W2       1424     TIP3     H2       HT       0.417000       1.00800           0
      4273 W2       1425     TIP3     OH2      OT      -0.834000       15.9994           0
      4274 W2       1425     TIP3     H1       HT       0.417000       1.00800           0
      4275 W2       1425     TIP3     H2       HT       0.417000       1.00800           0
      4276 W2       1426     TIP3     OH2      OT      -0.834000       15.9994           0
      4277 W2       1426     TIP3     H1       HT       0.417000       1.00800           0
      4278 W2       1426     TIP3     H2       HT       0.417000       1.00800           0
      4279 W2       1427     TIP3     OH2      OT      -0.834000       15.9994           0
      4280 W2       1427     TIP3     H1       HT       0.417000       1.00800           0
      4281 W2       1427     TIP3     H2       HT       0.417000       1.00800           0
      4282 W2       1428     TIP3     OH2      OT      -0.834000       15.9994           0
      4283 W2       1428     TIP3     H1       HT       0.417000       1.00800           0
      4284 W2       1428     TIP3     H2       HT       0.417000       1.00800           0
      4285 W2       1429     TIP3     OH2      OT      -0.834000       15.9994           0
      4286 W2       1429     TIP3     H1       HT       0.417000       1.00800           0
      4287 W2       1429     TIP3     H2       HT       0.417000       1.00800           0
      4288 W2       1430     TIP3     OH2      OT      -0.834000       15.9994           0
      4289 W2       1430     TIP3     H1       HT       0.417000       1.00800           0
      4290 W2       1430     TIP3     H2       HT       0.417000       1.00800           0
      4291 W2       1431     TIP3     OH2      OT      -0.834000       15.9994           0
      4292 W2       1431     TIP3     H1       HT       0.417000       1.00800           0
      4293 W2       1431     TIP3     H2       HT       0.417000       1.00800           0
      4294 W2       1432     TIP3     OH2      OT      -0.834000       15.9994           0
      4295 W2       1432     TIP3     H1       HT       0.417000       1.00800           0
      4296 W2       1432     TIP3     H2       HT       0.417000       1.00800           0
      4297 W2       1433     TIP3     OH2      OT      -0.834000       15.9994           0
      4298 W2       1433     TIP3     H1       HT       0.417000       1.00800           0
      4299 W2       1433     TIP3     H2       HT       0.417000       1.00800           0
      4300 W2       1434     TIP3     OH2      OT      -0.834000       15.9994           0
      4301 W2       1434     TIP3     H1       HT       0.417000       1.00800           0
      4302 W2       1434     TIP3     H2       HT       0.417000       1.00800           0
      4303 W2       1435     TIP3     OH2      OT      -0.834000       15.9994           0
      4304 W2       1435     TIP3     H1       HT       0.417000       1.00800           0
      4305 W2       1435     TIP3     H2       HT       0.417000       1.00800           0
      4306 W2       1436     TIP3     OH2      OT      -0.834000       15.9994           0
      4307 W2       1436     TIP3     H1       HT       0.417000       1.00800           0
      4308 W2       1436     TIP3     H2       HT       0.417000       1.00800           0
      4309 W2       1437     TIP3     OH2      OT      -0.834000       15.9994           0
      4310 W2       1437     TIP3     H1       HT       0.417000       1.00800           0
      4311 W2       1437     TIP3     H2       HT       0.417000       1.00800           0
      4312 W2       1438     TIP3     OH2      OT      -0.834000       15.9994           0
      4313 W2       1438     TIP3     H1       HT       0.417000       1.00800           0
      4314 W2       1438     TIP3     H2       HT       0.417000       1.00800           0
      4315 W2       1439     TIP3     OH2      OT      -0.834000       15.9994           0
      4316 W2       1439     TIP3     H1       HT       0.417000       1.00800           0
      4317 W2       1439     TIP3     H2       HT       0.417000       1.00800           0
      4318 W2       1440     TIP3     OH2      OT      -0.834000       15.9994           0
      4319 W2       1440     TIP3     H1       HT       0.417000       1.00800           0
      4320 W2       1440     TIP3     H2       HT       0.417000       1.00800           0
      4321 W2       1441     TIP3     OH2      OT      -0.834000       15.9994           0
      4322 W2       1441     TIP3     H1       HT       0.417000       1.00800           0
      4323 W2       1441     TIP3     H2       HT       0.417000       1.00800           0
      4324 W2       1442     TIP3     OH2      OT      -0.834000       15.9994           0
      4325 W2       1442     TIP3     H1       HT       0.417000       1.00800           0
      4326 W2       1442     TIP3     H2       HT       0.417000       1.00800           0
      4327 W2       1443     TIP3     OH2      OT      -0.834000       15.9994           0
      4328 W2       1443     TIP3     H1       HT       0.417000       1.00800           0
      4329 W2       1443     TIP3     H2       HT       0.417000       1.00800           0
      4330 W2       1444     TIP3     OH2      OT      -0.834000       15.9994           0
      4331 W2       1444     TIP3     H1       HT       0.417000       1.00800           0
      4332 W2       1444     TIP3     H2       HT       0.417000       1.00800           0
      4333 W2       1445     TIP3     OH2      OT      -0.834000       15.9994           0
      4334 W2       1445     TIP3     H1       HT       0.417000       1.00800           0
      4335 W2       1445     TIP3     H2       HT       0.417000       1.00800           0
      4336 W2       1446     TIP3     OH2      OT      -0.834000       15.9994           0
      4337 W2       1446     TIP3     H1       HT       0.417000       1.00800           0
      4338 W2       1446     TIP3     H2       HT       0.417000       1.00800           0
      4339 W2       1447     TIP3     OH2      OT      -0.834000       15.9994           0
      4340 W2       1447     TIP3     H1       HT       0.417000       1.00800           0
      4341 W2       1447     TIP3     H2       HT       0.417000       1.00800           0
      4342 W2       1448     TIP3     OH2      OT      -0.834000       15.9994           0
      4343 W2       1448     TIP3     H1       HT       0.417000       1.00800           0
      4344 W2       1448     TIP3     H2       HT       0.417000       1.00800           0
      4345 W2       1449     TIP3     OH2      OT      -0.834000       15.9994           0
      4346 W2       1449     TIP3     H1       HT       0.417000       1.00800           0
      4347 W2       1449     TIP3     H2       HT       0.417000       1.00800           0
      4348 W2       1450     TIP3     OH2      OT      -0.834000       15.9994           0
      4349 W2       1450     TIP3     H1       HT       0.417000       1.00800           0
      4350 W2       1450     TIP3     H2       HT       0.417000       1.00800           0
      4351 W2       1451     TIP3     OH2      OT      -0.834000       15.9994           0
      4352 W2       1451     TIP3     H1       HT       0.417000       1.00800           0
      4353 W2       1451     TIP3     H2       HT       0.417000       1.00800           0
      4354 W2       1452     TIP3     OH2      OT      -0.834000       15.9994           0
      4355 W2       1452     TIP3     H1       HT       0.417000       1.00800           0
      4356 W2       1452     TIP3     H2       HT       0.417000       1.00800           0
      4357 W2       1453     TIP3     OH2      OT      -0.834000       15.9994           0
      4358 W2       1453     TIP3     H1       HT       0.417000       1.00800           0
      4359 W2       1453     TIP3     H2       HT       0.417000       1.00800           0
      4360 W2       1454     TIP3     OH2      OT      -0.834000       15.9994           0
      4361 W2       1454     TIP3     H1       HT       0.417000       1.00800           0
      4362 W2       1454     TIP3     H2       HT       0.417000       1.00800           0
      4363 W2       1455     TIP3     OH2      OT      -0.834000       15.9994           0
      4364 W2       1455     TIP3     H1       HT       0.417000       1.00800           0
      4365 W2       1455     TIP3     H2       HT       0.417000       1.00800           0
      4366 W2       1456     TIP3     OH2      OT      -0.834000       15.9994           0
      4367 W2       1456     TIP3     H1       HT       0.417000       1.00800           0
      4368 W2       1456     TIP3     H2       HT       0.417000       1.00800           0
      4369 W2       1457     TIP3     OH2      OT      -0.834000       15.9994           0
      4370 W2       1457     TIP3     H1       HT       0.417000       1.00800           0
      4371 W2       1457     TIP3     H2       HT       0.417000       1.00800           0
      4372 W2       1458     TIP3     OH2      OT      -0.834000       15.9994           0
      4373 W2       1458     TIP3     H1       HT       0.417000       1.00800           0
      4374 W2       1458     TIP3     H2       HT       0.417000       1.00800           0
      4375 W2       1459     TIP3     OH2      OT      -0.834000       15.9994           0
      4376 W2       1459     TIP3     H1       HT       0.417000       1.00800           0
      4377 W2       1459     TIP3     H2       HT       0.417000       1.00800           0
      4378 W2       1460     TIP3     OH2      OT      -0.834000       15.9994           0
      4379 W2       1460     TIP3     H1       HT       0.417000       1.00800           0
      4380 W2       1460     TIP3     H2       HT       0.417000       1.00800           0
      4381 W2       1461     TIP3     OH2      OT      -0.834000       15.9994           0
      4382 W2       1461     TIP3     H1       HT       0.417000       1.00800           0
      4383 W2       1461     TIP3     H2       HT       0.417000       1.00800           0
      4384 W2       1462     TIP3     OH2      OT      -0.834000       15.9994           0
      4385 W2       1462     TIP3     H1       HT       0.417000       1.00800           0
      4386 W2       1462     TIP3     H2       HT       0.417000       1.00800           0
      4387 W2       1463     TIP3     OH2      OT      -0.834000       15.9994           0
      4388 W2       1463     TIP3     H1       HT       0.417000       1.00800           0
      4389 W2       1463     TIP3     H2       HT       0.417000       1.00800           0
      4390 W2       1464     TIP3     OH2      OT      -0.834000       15.9994           0
      4391 W2       1464     TIP3     H1       HT       0.417000       1.00800           0
      4392 W2       1464     TIP3     H2       HT       0.417000       1.00800           0
      4393 W2       1465     TIP3     OH2      OT      -0.834000       15.9994           0
      4394 W2       1465     TIP3     H1       HT       0.417000       1.00800           0
      4395 W2       1465     TIP3     H2       HT       0.417000       1.00800           0
      4396 W2       1466     TIP3     OH2      OT      -0.834000       15.9994           0
      4397 W2       1466     TIP3     H1       HT       0.417000       1.00800           0
      4398 W2       1466     TIP3     H2       HT       0.417000       1.00800           0
      4399 W2       1467     TIP3     OH2      OT      -0.834000       15.9994           0
      4400 W2       1467     TIP3     H1       HT       0.417000       1.00800           0
      4401 W2       1467     TIP3     H2       HT       0.417000       1.00800           0
      4402 W2       1468     TIP3     OH2      OT      -0.834000       15.9994           0
      4403 W2       1468     TIP3     H1       HT       0.417000       1.00800           0
      4404 W2       1468     TIP3     H2       HT       0.417000       1.00800           0
      4405 W2       1469     TIP3     OH2      OT      -0.834000       15.9994           0
      4406 W2       1469     TIP3     H1       HT       0.417000       1.00800           0
      4407 W2       1469     TIP3     H2       HT       0.417000       1.00800           0
      4408 W2       1470     TIP3     OH2      OT      -0.834000       15.9994           0
      4409 W2       1470     TIP3     H1       HT       0.417000       1.00800           0
      4410 W2       1470     TIP3     H2       HT       0.417000       1.00800           0
      4411 W2       1471     TIP3     OH2      OT      -0.834000       15.9994           0
      4412 W2       1471     TIP3     H1       HT       0.417000       1.00800           0
      4413 W2       1471     TIP3     H2       HT       0.417000       1.00800           0
      4414 W2       1472     TIP3     OH2      OT      -0.834000       15.9994           0
      4415 W2       1472     TIP3     H1       HT       0.417000       1.00800           0
      4416 W2       1472     TIP3     H2       HT       0.417000       1.00800           0
      4417 W2       1473     TIP3     OH2      OT      -0.834000       15.9994           0
      4418 W2       1473     TIP3     H1       HT       0.417000       1.00800           0
      4419 W2       1473     TIP3     H2       HT       0.417000       1.00800           0
      4420 W2       1474     TIP3     OH2      OT      -0.834000       15.9994           0
      4421 W2       1474     TIP3     H1       HT       0.417000       1.00800           0
      4422 W2       1474     TIP3     H2       HT       0.417000       1.00800           0
      4423 W2       1475     TIP3     OH2      OT      -0.834000       15.9994           0
      4424 W2       1475     TIP3     H1       HT       0.417000       1.00800           0
      4425 W2       1475     TIP3     H2       HT       0.417000       1.00800           0
      4426 W2       1476     TIP3     OH2      OT      -0.834000       15.9994           0
      4427 W2       1476     TIP3     H1       HT       0.417000       1.00800           0
      4428 W2       1476     TIP3     H2       HT       0.417000       1.00800           0
      4429 W2       1477     TIP3     OH2      OT      -0.834000       15.9994           0
      4430 W2       1477     TIP3     H1       HT       0.417000       1.00800           0
      4431 W2       1477     TIP3     H2       HT       0.417000       1.00800           0
      4432 W2       1478     TIP3     OH2      OT      -0.834000       15.9994           0
      4433 W2       1478     TIP3     H1       HT       0.417000       1.00800           0
      4434 W2       1478     TIP3     H2       HT       0.417000       1.00800           0
      4435 W2       1479     TIP3     OH2      OT      -0.834000       15.9994           0
      4436 W2       1479     TIP3     H1       HT       0.417000       1.00800           0
      4437 W2       1479     TIP3     H2       HT       0.417000       1.00800           0
      4438 W2       1480     TIP3     OH2      OT      -0.834000       15.9994           0
      4439 W2       1480     TIP3     H1       HT       0.417000       1.00800           0
      4440 W2       1480     TIP3     H2       HT       0.417000       1.00800           0
      4441 W2       1481     TIP3     OH2      OT      -0.834000       15.9994           0
      4442 W2       1481     TIP3     H1       HT       0.417000       1.00800           0
      4443 W2       1481     TIP3     H2       HT       0.417000       1.00800           0
      4444 W2       1482     TIP3     OH2      OT      -0.834000       15.9994           0
      4445 W2       1482     TIP3     H1       HT       0.417000       1.00800           0
      4446 W2       1482     TIP3     H2       HT       0.417000       1.00800           0
      4447 W2       1483     TIP3     OH2      OT      -0.834000       15.9994           0
      4448 W2       1483     TIP3     H1       HT       0.417000       1.00800           0
      4449 W2       1483     TIP3     H2       HT       0.417000       1.00800           0
      4450 W2       1484     TIP3     OH2      OT      -0.834000       15.9994           0
      4451 W2       1484     TIP3     H1       HT       0.417000       1.00800           0
      4452 W2       1484     TIP3     H2       HT       0.417000       1.00800           0
      4453 W2       1485     TIP3     OH2      OT      -0.834000       15.9994           0
      4454 W2       1485     TIP3     H1       HT       0.417000       1.00800           0
      4455 W2       1485     TIP3     H2       HT       0.417000       1.00800           0
      4456 W2       1486     TIP3     OH2      OT      -0.834000       15.9994           0
      4457 W2       1486     TIP3     H1       HT       0.417000       1.00800           0
      4458 W2       1486     TIP3     H2       HT       0.417000       1.00800           0
      4459 W2       1487     TIP3     OH2      OT      -0.834000       15.9994           0
      4460 W2       1487     TIP3     H1       HT       0.417000       1.00800           0
      4461 W2       1487     TIP3     H2       HT       0.417000       1.00800           0
      4462 W2       1488     TIP3     OH2      OT      -0.834000       15.9994           0
      4463 W2       1488     TIP3     H1       HT       0.417000       1.00800           0
      4464 W2       1488     TIP3     H2       HT       0.417000       1.00800           0
      4465 W2       1489     TIP3     OH2      OT      -0.834000       15.9994           0
      4466 W2       1489     TIP3     H1       HT       0.417000       1.00800           0
      4467 W2       1489     TIP3     H2       HT       0.417000       1.00800           0
      4468 W2       1490     TIP3     OH2      OT      -0.834000       15.9994           0
      4469 W2       1490     TIP3     H1       HT       0.417000       1.00800           0
      4470 W2       1490     TIP3     H2       HT       0.417000       1.00800           0
      4471 W2       1491     TIP3     OH2      OT      -0.834000       15.9994           0
      4472 W2       1491     TIP3     H1       HT       0.417000       1.00800           0
      4473 W2       1491     TIP3     H2       HT       0.417000       1.00800           0
      4474 W2       1492     TIP3     OH2      OT      -0.834000       15.9994           0
      4475 W2       1492     TIP3     H1       HT       0.417000       1.00800           0
      4476 W2       1492     TIP3     H2       HT       0.417000       1.00800           0
      4477 W2       1493     TIP3     OH2      OT      -0.834000       15.9994           0
      4478 W2       1493     TIP3     H1       HT       0.417000       1.00800           0
      4479 W2       1493     TIP3     H2       HT       0.417000       1.00800           0
      4480 W2       1494     TIP3     OH2      OT      -0.834000       15.9994           0
      4481 W2       1494     TIP3     H1       HT       0.417000       1.00800           0
      4482 W2       1494     TIP3     H2       HT       0.417000       1.00800           0
      4483 W2       1495     TIP3     OH2      OT      -0.834000       15.9994           0
      4484 W2       1495     TIP3     H1       HT       0.417000       1.00800           0
      4485 W2       1495     TIP3     H2       HT       0.417000       1.00800           0
      4486 W2       1496     TIP3     OH2      OT      -0.834000       15.9994           0
      4487 W2       1496     TIP3     H1       HT       0.417000       1.00800           0
      4488 W2       1496     TIP3     H2       HT       0.417000       1.00800           0
      4489 W2       1497     TIP3     OH2      OT      -0.834000       15.9994           0
      4490 W2       1497     TIP3     H1       HT       0.417000       1.00800           0
      4491 W2       1497     TIP3     H2       HT       0.417000       1.00800           0
      4492 W2       1498     TIP3     OH2      OT      -0.834000       15.9994           0
      4493 W2       1498     TIP3     H1       HT       0.417000       1.00800           0
      4494 W2       1498     TIP3     H2       HT       0.417000       1.00800           0
      4495 W2       1499     TIP3     OH2      OT      -0.834000       15.9994           0
      4496 W2       1499     TIP3     H1       HT       0.417000       1.00800           0
      4497 W2       1499     TIP3     H2       HT       0.417000       1.00800           0
      4498 W2       1500     TIP3     OH2      OT      -0.834000       15.9994           0
      4499 W2       1500     TIP3     H1       HT       0.417000       1.00800           0
      4500 W2       1500     TIP3     H2       HT       0.417000       1.00800           0
      4501 W2       1501     TIP3     OH2      OT      -0.834000       15.9994           0
      4502 W2       1501     TIP3     H1       HT       0.417000       1.00800           0
      4503 W2       1501     TIP3     H2       HT       0.417000       1.00800           0
      4504 W2       1502     TIP3     OH2      OT      -0.834000       15.9994           0
      4505 W2       1502     TIP3     H1       HT       0.417000       1.00800           0
      4506 W2       1502     TIP3     H2       HT       0.417000       1.00800           0
      4507 W2       1503     TIP3     OH2      OT      -0.834000       15.9994           0
      4508 W2       1503     TIP3     H1       HT       0.417000       1.00800           0
      4509 W2       1503     TIP3     H2       HT       0.417000       1.00800           0
      4510 W2       1504     TIP3     OH2      OT      -0.834000       15.9994           0
      4511 W2       1504     TIP3     H1       HT       0.417000       1.00800           0
      4512 W2       1504     TIP3     H2       HT       0.417000       1.00800           0
      4513 W2       1505     TIP3     OH2      OT      -0.834000       15.9994           0
      4514 W2       1505     TIP3     H1       HT       0.417000       1.00800           0
      4515 W2       1505     TIP3     H2       HT       0.417000       1.00800           0
      4516 W2       1506     TIP3     OH2      OT      -0.834000       15.9994           0
      4517 W2       1506     TIP3     H1       HT       0.417000       1.00800           0
      4518 W2       1506     TIP3     H2       HT       0.417000       1.00800           0
      4519 W2       1507     TIP3     OH2      OT      -0.834000       15.9994           0
      4520 W2       1507     TIP3     H1       HT       0.417000       1.00800           0
      4521 W2       1507     TIP3     H2       HT       0.417000       1.00800           0
      4522 W2       1508     TIP3     OH2      OT      -0.834000       15.9994           0
      4523 W2       1508     TIP3     H1       HT       0.417000       1.00800           0
      4524 W2       1508     TIP3     H2       HT       0.417000       1.00800           0
      4525 W2       1509     TIP3     OH2      OT      -0.834000       15.9994           0
      4526 W2       1509     TIP3     H1       HT       0.417000       1.00800           0
      4527 W2       1509     TIP3     H2       HT       0.417000       1.00800           0
      4528 W2       1510     TIP3     OH2      OT      -0.834000       15.9994           0
      4529 W2       1510     TIP3     H1       HT       0.417000       1.00800           0
      4530 W2       1510     TIP3     H2       HT       0.417000       1.00800           0
      4531 W2       1511     TIP3     OH2      OT      -0.834000       15.9994           0
      4532 W2       1511     TIP3     H1       HT       0.417000       1.00800           0
      4533 W2       1511     TIP3     H2       HT       0.417000       1.00800           0
      4534 W2       1512     TIP3     OH2      OT      -0.834000       15.9994           0
      4535 W2       1512     TIP3     H1       HT       0.417000       1.00800           0
      4536 W2       1512     TIP3     H2       HT       0.417000       1.00800           0
      4537 W2       1513     TIP3     OH2      OT      -0.834000       15.9994           0
      4538 W2       1513     TIP3     H1       HT       0.417000       1.00800           0
      4539 W2       1513     TIP3     H2       HT       0.417000       1.00800           0
      4540 W2       1514     TIP3     OH2      OT      -0.834000       15.9994           0
      4541 W2       1514     TIP3     H1       HT       0.417000       1.00800           0
      4542 W2       1514     TIP3     H2       HT       0.417000       1.00800           0
      4543 W2       1515     TIP3     OH2      OT      -0.834000       15.9994           0
      4544 W2       1515     TIP3     H1       HT       0.417000       1.00800           0
      4545 W2       1515     TIP3     H2       HT       0.417000       1.00800           0
      4546 W2       1516     TIP3     OH2      OT      -0.834000       15.9994           0
      4547 W2       1516     TIP3     H1       HT       0.417000       1.00800           0
      4548 W2       1516     TIP3     H2       HT       0.417000       1.00800           0
      4549 W2       1517     TIP3     OH2      OT      -0.834000       15.9994           0
      4550 W2       1517     TIP3     H1       HT       0.417000       1.00800           0
      4551 W2       1517     TIP3     H2       HT       0.417000       1.00800           0
      4552 W2       1518     TIP3     OH2      OT      -0.834000       15.9994           0
      4553 W2       1518     TIP3     H1       HT       0.417000       1.00800           0
      4554 W2       1518     TIP3     H2       HT       0.417000       1.00800           0
      4555 W2       1519     TIP3     OH2      OT      -0.834000       15.9994           0
      4556 W2       1519     TIP3     H1       HT       0.417000       1.00800           0
      4557 W2       1519     TIP3     H2       HT       0.417000       1.00800           0
      4558 W2       1520     TIP3     OH2      OT      -0.834000       15.9994           0
      4559 W2       1520     TIP3     H1       HT       0.417000       1.00800           0
      4560 W2       1520     TIP3     H2       HT       0.417000       1.00800           0
      4561 W2       1521     TIP3     OH2      OT      -0.834000       15.9994           0
      4562 W2       1521     TIP3     H1       HT       0.417000       1.00800           0
      4563 W2       1521     TIP3     H2       HT       0.417000       1.00800           0
      4564 W2       1522     TIP3     OH2      OT      -0.834000       15.9994           0
      4565 W2       1522     TIP3     H1       HT       0.417000       1.00800           0
      4566 W2       1522     TIP3     H2       HT       0.417000       1.00800           0
      4567 W2       1523     TIP3     OH2      OT      -0.834000       15.9994           0
      4568 W2       1523     TIP3     H1       HT       0.417000       1.00800           0
      4569 W2       1523     TIP3     H2       HT       0.417000       1.00800           0
      4570 W2       1524     TIP3     OH2      OT      -0.834000       15.9994           0
      4571 W2       1524     TIP3     H1       HT       0.417000       1.00800           0
      4572 W2       1524     TIP3     H2       HT       0.417000       1.00800           0
      4573 W2       1525     TIP3     OH2      OT      -0.834000       15.9994           0
      4574 W2       1525     TIP3     H1       HT       0.417000       1.00800           0
      4575 W2       1525     TIP3     H2       HT       0.417000       1.00800           0
      4576 W2       1526     TIP3     OH2      OT      -0.834000       15.9994           0
      4577 W2       1526     TIP3     H1       HT       0.417000       1.00800           0
      4578 W2       1526     TIP3     H2       HT       0.417000       1.00800           0
      4579 W2       1527     TIP3     OH2      OT      -0.834000       15.9994           0
      4580 W2       1527     TIP3     H1       HT       0.417000       1.00800           0
      4581 W2       1527     TIP3     H2       HT       0.417000       1.00800           0
      4582 W2       1528     TIP3     OH2      OT      -0.834000       15.9994           0
      4583 W2       1528     TIP3     H1       HT       0.417000       1.00800           0
      4584 W2       1528     TIP3     H2       HT       0.417000       1.00800           0
      4585 W2       1529     TIP3     OH2      OT      -0.834000       15.9994           0
      4586 W2       1529     TIP3     H1       HT       0.417000       1.00800           0
      4587 W2       1529     TIP3     H2       HT       0.417000       1.00800           0
      4588 W2       1530     TIP3     OH2      OT      -0.834000       15.9994           0
      4589 W2       1530     TIP3     H1       HT       0.417000       1.00800           0
      4590 W2       1530     TIP3     H2       HT       0.417000       1.00800           0
      4591 W2       1531     TIP3     OH2      OT      -0.834000       15.9994           0
      4592 W2       1531     TIP3     H1       HT       0.417000       1.00800           0
      4593 W2       1531     TIP3     H2       HT       0.417000       1.00800           0
      4594 W2       1532     TIP3     OH2      OT      -0.834000       15.9994           0
      4595 W2       1532     TIP3     H1       HT       0.417000       1.00800           0
      4596 W2       1532     TIP3     H2       HT       0.417000       1.00800           0
      4597 W2       1533     TIP3     OH2      OT      -0.834000       15.9994           0
      4598 W2       1533     TIP3     H1       HT       0.417000       1.00800           0
      4599 W2       1533     TIP3     H2       HT       0.417000       1.00800           0
      4600 W2       1534     TIP3     OH2      OT      -0.834000       15.9994           0
      4601 W2       1534     TIP3     H1       HT       0.417000       1.00800           0
      4602 W2       1534     TIP3     H2       HT       0.417000       1.00800           0
      4603 W2       1535     TIP3     OH2      OT      -0.834000       15.9994           0
      4604 W2       1535     TIP3     H1       HT       0.417000       1.00800           0
      4605 W2       1535     TIP3     H2       HT       0.417000       1.00800           0
      4606 W2       1536     TIP3     OH2      OT      -0.834000       15.9994           0
      4607 W2       1536     TIP3     H1       HT       0.417000       1.00800           0
      4608 W2       1536     TIP3     H2       HT       0.417000       1.00800           0
      4609 W2       1537     TIP3     OH2      OT      -0.834000       15.9994           0
      4610 W2       1537     TIP3     H1       HT       0.417000       1.00800           0
      4611 W2       1537     TIP3     H2       HT       0.417000       1.00800           0
      4612 W2       1538     TIP3     OH2      OT      -0.834000       15.9994           0
      4613 W2       1538     TIP3     H1       HT       0.417000       1.00800           0
      4614 W2       1538     TIP3     H2       HT       0.417000       1.00800           0
      4615 W2       1539     TIP3     OH2      OT      -0.834000       15.9994           0
      4616 W2       1539     TIP3     H1       HT       0.417000       1.00800           0
      4617 W2       1539     TIP3     H2       HT       0.417000       1.00800           0
      4618 W2       1540     TIP3     OH2      OT      -0.834000       15.9994           0
      4619 W2       1540     TIP3     H1       HT       0.417000       1.00800           0
      4620 W2       1540     TIP3     H2       HT       0.417000       1.00800           0
      4621 W2       1541     TIP3     OH2      OT      -0.834000       15.9994           0
      4622 W2       1541     TIP3     H1       HT       0.417000       1.00800           0
      4623 W2       1541     TIP3     H2       HT       0.417000       1.00800           0
      4624 W2       1542     TIP3     OH2      OT      -0.834000       15.9994           0
      4625 W2       1542     TIP3     H1       HT       0.417000       1.00800           0
      4626 W2       1542     TIP3     H2       HT       0.417000       1.00800           0
      4627 W2       1543     TIP3     OH2      OT      -0.834000       15.9994           0
      4628 W2       1543     TIP3     H1       HT       0.417000       1.00800           0
      4629 W2       1543     TIP3     H2       HT       0.417000       1.00800           0
      4630 W2       1544     TIP3     OH2      OT      -0.834000       15.9994           0
      4631 W2       1544     TIP3     H1       HT       0.417000       1.00800           0
      4632 W2       1544     TIP3     H2       HT       0.417000       1.00800           0
      4633 W2       1545     TIP3     OH2      OT      -0.834000       15.9994           0
      4634 W2       1545     TIP3     H1       HT       0.417000       1.00800           0
      4635 W2       1545     TIP3     H2       HT       0.417000       1.00800           0
      4636 W2       1546     TIP3     OH2      OT      -0.834000       15.9994           0
      4637 W2       1546     TIP3     H1       HT       0.417000       1.00800           0
      4638 W2       1546     TIP3     H2       HT       0.417000       1.00800           0
      4639 W2       1547     TIP3     OH2      OT      -0.834000       15.9994           0
      4640 W2       1547     TIP3     H1       HT       0.417000       1.00800           0
      4641 W2       1547     TIP3     H2       HT       0.417000       1.00800           0
      4642 W2       1548     TIP3     OH2      OT      -0.834000       15.9994           0
      4643 W2       1548     TIP3     H1       HT       0.417000       1.00800           0
      4644 W2       1548     TIP3     H2       HT       0.417000       1.00800           0
      4645 W2       1549     TIP3     OH2      OT      -0.834000       15.9994           0
      4646 W2       1549     TIP3     H1       HT       0.417000       1.00800           0
      4647 W2       1549     TIP3     H2       HT       0.417000       1.00800           0
      4648 W2       1550     TIP3     OH2      OT      -0.834000       15.9994           0
      4649 W2       1550     TIP3     H1       HT       0.417000       1.00800           0
      4650 W2       1550     TIP3     H2       HT       0.417000       1.00800           0
      4651 W2       1551     TIP3     OH2      OT      -0.834000       15.9994           0
      4652 W2       1551     TIP3     H1       HT       0.417000       1.00800           0
      4653 W2       1551     TIP3     H2       HT       0.417000       1.00800           0
      4654 W2       1552     TIP3     OH2      OT      -0.834000       15.9994           0
      4655 W2       1552     TIP3     H1       HT       0.417000       1.00800           0
      4656 W2       1552     TIP3     H2       HT       0.417000       1.00800           0
      4657 W2       1553     TIP3     OH2      OT      -0.834000       15.9994           0
      4658 W2       1553     TIP3     H1       HT       0.417000       1.00800           0
      4659 W2       1553     TIP3     H2       HT       0.417000       1.00800           0
      4660 W2       1554     TIP3     OH2      OT      -0.834000       15.9994           0
      4661 W2       1554     TIP3     H1       HT       0.417000       1.00800           0
      4662 W2       1554     TIP3     H2       HT       0.417000       1.00800           0
      4663 W2       1555     TIP3     OH2      OT      -0.834000       15.9994           0
      4664 W2       1555     TIP3     H1       HT       0.417000       1.00800           0
      4665 W2       1555     TIP3     H2       HT       0.417000       1.00800           0
      4666 W2       1556     TIP3     OH2      OT      -0.834000       15.9994           0
      4667 W2       1556     TIP3     H1       HT       0.417000       1.00800           0
      4668 W2       1556     TIP3     H2       HT       0.417000       1.00800           0
      4669 W2       1557     TIP3     OH2      OT      -0.834000       15.9994           0
      4670 W2       1557     TIP3     H1       HT       0.417000       1.00800           0
      4671 W2       1557     TIP3     H2       HT       0.417000       1.00800           0
      4672 W2       1558     TIP3     OH2      OT      -0.834000       15.9994           0
      4673 W2       1558     TIP3     H1       HT       0.417000       1.00800           0
      4674 W2       1558     TIP3     H2       HT       0.417000       1.00800           0
      4675 W2       1559     TIP3     OH2      OT      -0.834000       15.9994           0
      4676 W2       1559     TIP3     H1       HT       0.417000       1.00800           0
      4677 W2       1559     TIP3     H2       HT       0.417000       1.00800           0
      4678 W2       1560     TIP3     OH2      OT      -0.834000       15.9994           0
      4679 W2       1560     TIP3     H1       HT       0.417000       1.00800           0
      4680 W2       1560     TIP3     H2       HT       0.417000       1.00800           0
      4681 W2       1561     TIP3     OH2      OT      -0.834000       15.9994           0
      4682 W2       1561     TIP3     H1       HT       0.417000       1.00800           0
      4683 W2       1561     TIP3     H2       HT       0.417000       1.00800           0
      4684 W2       1562     TIP3     OH2      OT      -0.834000       15.9994           0
      4685 W2       1562     TIP3     H1       HT       0.417000       1.00800           0
      4686 W2       1562     TIP3     H2       HT       0.417000       1.00800           0
      4687 W2       1563     TIP3     OH2      OT      -0.834000       15.9994           0
      4688 W2       1563     TIP3     H1       HT       0.417000       1.00800           0
      4689 W2       1563     TIP3     H2       HT       0.417000       1.00800           0
      4690 W2       1564     TIP3     OH2      OT      -0.834000       15.9994           0
      4691 W2       1564     TIP3     H1       HT       0.417000       1.00800           0
      4692 W2       1564     TIP3     H2       HT       0.417000       1.00800           0
      4693 W2       1565     TIP3     OH2      OT      -0.834000       15.9994           0
      4694 W2       1565     TIP3     H1       HT       0.417000       1.00800           0
      4695 W2       1565     TIP3     H2       HT       0.417000       1.00800           0
      4696 W2       1566     TIP3     OH2      OT      -0.834000       15.9994           0
      4697 W2       1566     TIP3     H1       HT       0.417000       1.00800           0
      4698 W2       1566     TIP3     H2       HT       0.417000       1.00800           0
      4699 W2       1567     TIP3     OH2      OT      -0.834000       15.9994           0
      4700 W2       1567     TIP3     H1       HT       0.417000       1.00800           0
      4701 W2       1567     TIP3     H2       HT       0.417000       1.00800           0
      4702 W2       1568     TIP3     OH2      OT      -0.834000       15.9994           0
      4703 W2       1568     TIP3     H1       HT       0.417000       1.00800           0
      4704 W2       1568     TIP3     H2       HT       0.417000       1.00800           0
      4705 W2       1569     TIP3     OH2      OT      -0.834000       15.9994           0
      4706 W2       1569     TIP3     H1       HT       0.417000       1.00800           0
      4707 W2       1569     TIP3     H2       HT       0.417000       1.00800           0
      4708 W2       1570     TIP3     OH2      OT      -0.834000       15.9994           0
      4709 W2       1570     TIP3     H1       HT       0.417000       1.00800           0
      4710 W2       1570     TIP3     H2       HT       0.417000       1.00800           0
      4711 W2       1571     TIP3     OH2      OT      -0.834000       15.9994           0
      4712 W2       1571     TIP3     H1       HT       0.417000       1.00800           0
      4713 W2       1571     TIP3     H2       HT       0.417000       1.00800           0
      4714 W2       1572     TIP3     OH2      OT      -0.834000       15.9994           0
      4715 W2       1572     TIP3     H1       HT       0.417000       1.00800           0
      4716 W2       1572     TIP3     H2       HT       0.417000       1.00800           0
      4717 W2       1573     TIP3     OH2      OT      -0.834000       15.9994           0
      4718 W2       1573     TIP3     H1       HT       0.417000       1.00800           0
      4719 W2       1573     TIP3     H2       HT       0.417000       1.00800           0
      4720 W2       1574     TIP3     OH2      OT      -0.834000       15.9994           0
      4721 W2       1574     TIP3     H1       HT       0.417000       1.00800           0
      4722 W2       1574     TIP3     H2       HT       0.417000       1.00800           0
      4723 W2       1575     TIP3     OH2      OT      -0.834000       15.9994           0
      4724 W2       1575     TIP3     H1       HT       0.417000       1.00800           0
      4725 W2       1575     TIP3     H2       HT       0.417000       1.00800           0
      4726 W2       1576     TIP3     OH2      OT      -0.834000       15.9994           0
      4727 W2       1576     TIP3     H1       HT       0.417000       1.00800           0
      4728 W2       1576     TIP3     H2       HT       0.417000       1.00800           0
      4729 W2       1577     TIP3     OH2      OT      -0.834000       15.9994           0
      4730 W2       1577     TIP3     H1       HT       0.417000       1.00800           0
      4731 W2       1577     TIP3     H2       HT       0.417000       1.00800           0
      4732 W2       1578     TIP3     OH2      OT      -0.834000       15.9994           0
      4733 W2       1578     TIP3     H1       HT       0.417000       1.00800           0
      4734 W2       1578     TIP3     H2       HT       0.417000       1.00800           0
      4735 W2       1579     TIP3     OH2      OT      -0.834000       15.9994           0
      4736 W2       1579     TIP3     H1       HT       0.417000       1.00800           0
      4737 W2       1579     TIP3     H2       HT       0.417000       1.00800           0
      4738 W2       1580     TIP3     OH2      OT      -0.834000       15.9994           0
      4739 W2       1580     TIP3     H1       HT       0.417000       1.00800           0
      4740 W2       1580     TIP3     H2       HT       0.417000       1.00800           0
      4741 W2       1581     TIP3     OH2      OT      -0.834000       15.9994           0
      4742 W2       1581     TIP3     H1       HT       0.417000       1.00800           0
      4743 W2       1581     TIP3     H2       HT       0.417000       1.00800           0
      4744 W2       1582     TIP3     OH2      OT      -0.834000       15.9994           0
      4745 W2       1582     TIP3     H1       HT       0.417000       1.00800           0
      4746 W2       1582     TIP3     H2       HT       0.417000       1.00800           0
      4747 W2       1583     TIP3     OH2      OT      -0.834000       15.9994           0
      4748 W2       1583     TIP3     H1       HT       0.417000       1.00800           0
      4749 W2       1583     TIP3     H2       HT       0.417000       1.00800           0
      4750 W2       1584     TIP3     OH2      OT      -0.834000       15.9994           0
      4751 W2       1584     TIP3     H1       HT       0.417000       1.00800           0
      4752 W2       1584     TIP3     H2       HT       0.417000       1.00800           0
      4753 W2       1585     TIP3     OH2      OT      -0.834000       15.9994           0
      4754 W2       1585     TIP3     H1       HT       0.417000       1.00800           0
      4755 W2       1585     TIP3     H2       HT       0.417000       1.00800           0
      4756 W2       1586     TIP3     OH2      OT      -0.834000       15.9994           0
      4757 W2       1586     TIP3     H1       HT       0.417000       1.00800           0
      4758 W2       1586     TIP3     H2       HT       0.417000       1.00800           0
      4759 W2       1587     TIP3     OH2      OT      -0.834000       15.9994           0
      4760 W2       1587     TIP3     H1       HT       0.417000       1.00800           0
      4761 W2       1587     TIP3     H2       HT       0.417000       1.00800           0
      4762 W2       1588     TIP3     OH2      OT      -0.834000       15.9994           0
      4763 W2       1588     TIP3     H1       HT       0.417000       1.00800           0
      4764 W2       1588     TIP3     H2       HT       0.417000       1.00800           0
      4765 W2       1589     TIP3     OH2      OT      -0.834000       15.9994           0
      4766 W2       1589     TIP3     H1       HT       0.417000       1.00800           0
      4767 W2       1589     TIP3     H2       HT       0.417000       1.00800           0
      4768 W2       1590     TIP3     OH2      OT      -0.834000       15.9994           0
      4769 W2       1590     TIP3     H1       HT       0.417000       1.00800           0
      4770 W2       1590     TIP3     H2       HT       0.417000       1.00800           0
      4771 W2       1591     TIP3     OH2      OT      -0.834000       15.9994           0
      4772 W2       1591     TIP3     H1       HT       0.417000       1.00800           0
      4773 W2       1591     TIP3     H2       HT       0.417000       1.00800           0
      4774 W2       1592     TIP3     OH2      OT      -0.834000       15.9994           0
      4775 W2       1592     TIP3     H1       HT       0.417000       1.00800           0
      4776 W2       1592     TIP3     H2       HT       0.417000       1.00800           0
      4777 W2       1593     TIP3     OH2      OT      -0.834000       15.9994           0
      4778 W2       1593     TIP3     H1       HT       0.417000       1.00800           0
      4779 W2       1593     TIP3     H2       HT       0.417000       1.00800           0
      4780 W2       1594     TIP3     OH2      OT      -0.834000       15.9994           0
      4781 W2       1594     TIP3     H1       HT       0.417000       1.00800           0
      4782 W2       1594     TIP3     H2       HT       0.417000       1.00800           0
      4783 W2       1595     TIP3     OH2      OT      -0.834000       15.9994           0
      4784 W2       1595     TIP3     H1       HT       0.417000       1.00800           0
      4785 W2       1595     TIP3     H2       HT       0.417000       1.00800           0
      4786 W2       1596     TIP3     OH2      OT      -0.834000       15.9994           0
      4787 W2       1596     TIP3     H1       HT       0.417000       1.00800           0
      4788 W2       1596     TIP3     H2       HT       0.417000       1.00800           0
      4789 W2       1597     TIP3     OH2      OT      -0.834000       15.9994           0
      4790 W2       1597     TIP3     H1       HT       0.417000       1.00800           0
      4791 W2       1597     TIP3     H2       HT       0.417000       1.00800           0
      4792 W2       1598     TIP3     OH2      OT      -0.834000       15.9994           0
      4793 W2       1598     TIP3     H1       HT       0.417000       1.00800           0
      4794 W2       1598     TIP3     H2       HT       0.417000       1.00800           0
      4795 W2       1599     TIP3     OH2      OT      -0.834000       15.9994           0
      4796 W2       1599     TIP3     H1       HT       0.417000       1.00800           0
      4797 W2       1599     TIP3     H2       HT       0.417000       1.00800           0
      4798 W2       1600     TIP3     OH2      OT      -0.834000       15.9994           0
      4799 W2       1600     TIP3     H1       HT       0.417000       1.00800           0
      4800 W2       1600     TIP3     H2       HT       0.417000       1.00800           0
      4801 W2       1601     TIP3     OH2      OT      -0.834000       15.9994           0
      4802 W2       1601     TIP3     H1       HT       0.417000       1.00800           0
      4803 W2       1601     TIP3     H2       HT       0.417000       1.00800           0
      4804 W2       1602     TIP3     OH2      OT      -0.834000       15.9994           0
      4805 W2       1602     TIP3     H1       HT       0.417000       1.00800           0
      4806 W2       1602     TIP3     H2       HT       0.417000       1.00800           0
      4807 W2       1603     TIP3     OH2      OT      -0.834000       15.9994           0
      4808 W2       1603     TIP3     H1       HT       0.417000       1.00800           0
      4809 W2       1603     TIP3     H2       HT       0.417000       1.00800           0
      4810 W2       1604     TIP3     OH2      OT      -0.834000       15.9994           0
      4811 W2       1604     TIP3     H1       HT       0.417000       1.00800           0
      4812 W2       1604     TIP3     H2       HT       0.417000       1.00800           0
      4813 W2       1605     TIP3     OH2      OT      -0.834000       15.9994           0
      4814 W2       1605     TIP3     H1       HT       0.417000       1.00800           0
      4815 W2       1605     TIP3     H2       HT       0.417000       1.00800           0
      4816 W2       1606     TIP3     OH2      OT      -0.834000       15.9994           0
      4817 W2       1606     TIP3     H1       HT       0.417000       1.00800           0
      4818 W2       1606     TIP3     H2       HT       0.417000       1.00800           0
      4819 W2       1607     TIP3     OH2      OT      -0.834000       15.9994           0
      4820 W2       1607     TIP3     H1       HT       0.417000       1.00800           0
      4821 W2       1607     TIP3     H2       HT       0.417000       1.00800           0
      4822 W2       1608     TIP3     OH2      OT      -0.834000       15.9994           0
      4823 W2       1608     TIP3     H1       HT       0.417000       1.00800           0
      4824 W2       1608     TIP3     H2       HT       0.417000       1.00800           0
      4825 W2       1609     TIP3     OH2      OT      -0.834000       15.9994           0
      4826 W2       1609     TIP3     H1       HT       0.417000       1.00800           0
      4827 W2       1609     TIP3     H2       HT       0.417000       1.00800           0
      4828 W2       1610     TIP3     OH2      OT      -0.834000       15.9994           0
      4829 W2       1610     TIP3     H1       HT       0.417000       1.00800           0
      4830 W2       1610     TIP3     H2       HT       0.417000       1.00800           0
      4831 W2       1611     TIP3     OH2      OT      -0.834000       15.9994           0
      4832 W2       1611     TIP3     H1       HT       0.417000       1.00800           0
      4833 W2       1611     TIP3     H2       HT       0.417000       1.00800           0
      4834 W2       1612     TIP3     OH2      OT      -0.834000       15.9994           0
      4835 W2       1612     TIP3     H1       HT       0.417000       1.00800           0
      4836 W2       1612     TIP3     H2       HT       0.417000       1.00800           0
      4837 W2       1613     TIP3     OH2      OT      -0.834000       15.9994           0
      4838 W2       1613     TIP3     H1       HT       0.417000       1.00800           0
      4839 W2       1613     TIP3     H2       HT       0.417000       1.00800           0
      4840 W2       1614     TIP3     OH2      OT      -0.834000       15.9994           0
      4841 W2       1614     TIP3     H1       HT       0.417000       1.00800           0
      4842 W2       1614     TIP3     H2       HT       0.417000       1.00800           0
      4843 W2       1615     TIP3     OH2      OT      -0.834000       15.9994           0
      4844 W2       1615     TIP3     H1       HT       0.417000       1.00800           0
      4845 W2       1615     TIP3     H2       HT       0.417000       1.00800           0
      4846 W2       1616     TIP3     OH2      OT      -0.834000       15.9994           0
      4847 W2       1616     TIP3     H1       HT       0.417000       1.00800           0
      4848 W2       1616     TIP3     H2       HT       0.417000       1.00800           0
      4849 W2       1617     TIP3     OH2      OT      -0.834000       15.9994           0
      4850 W2       1617     TIP3     H1       HT       0.417000       1.00800           0
      4851 W2       1617     TIP3     H2       HT       0.417000       1.00800           0
      4852 W2       1618     TIP3     OH2      OT      -0.834000       15.9994           0
      4853 W2       1618     TIP3     H1       HT       0.417000       1.00800           0
      4854 W2       1618     TIP3     H2       HT       0.417000       1.00800           0
      4855 W2       1619     TIP3     OH2      OT      -0.834000       15.9994           0
      4856 W2       1619     TIP3     H1       HT       0.417000       1.00800           0
      4857 W2       1619     TIP3     H2       HT       0.417000       1.00800           0
      4858 W2       1620     TIP3     OH2      OT      -0.834000       15.9994           0
      4859 W2       1620     TIP3     H1       HT       0.417000       1.00800           0
      4860 W2       1620     TIP3     H2       HT       0.417000       1.00800           0
      4861 W2       1621     TIP3     OH2      OT      -0.834000       15.9994           0
      4862 W2       1621     TIP3     H1       HT       0.417000       1.00800           0
      4863 W2       1621     TIP3     H2       HT       0.417000       1.00800           0
      4864 W2       1622     TIP3     OH2      OT      -0.834000       15.9994           0
      4865 W2       1622     TIP3     H1       HT       0.417000       1.00800           0
      4866 W2       1622     TIP3     H2       HT       0.417000       1.00800           0
      4867 W2       1623     TIP3     OH2      OT      -0.834000       15.9994           0
      4868 W2       1623     TIP3     H1       HT       0.417000       1.00800           0
      4869 W2       1623     TIP3     H2       HT       0.417000       1.00800           0
      4870 W2       1624     TIP3     OH2      OT      -0.834000       15.9994           0
      4871 W2       1624     TIP3     H1       HT       0.417000       1.00800           0
      4872 W2       1624     TIP3     H2       HT       0.417000       1.00800           0
      4873 W2       1625     TIP3     OH2      OT      -0.834000       15.9994           0
      4874 W2       1625     TIP3     H1       HT       0.417000       1.00800           0
      4875 W2       1625     TIP3     H2       HT       0.417000       1.00800           0
      4876 W2       1626     TIP3     OH2      OT      -0.834000       15.9994           0
      4877 W2       1626     TIP3     H1       HT       0.417000       1.00800           0
      4878 W2       1626     TIP3     H2       HT       0.417000       1.00800           0
      4879 W2       1627     TIP3     OH2      OT      -0.834000       15.9994           0
      4880 W2       1627     TIP3     H1       HT       0.417000       1.00800           0
      4881 W2       1627     TIP3     H2       HT       0.417000       1.00800           0
      4882 W2       1628     TIP3     OH2      OT      -0.834000       15.9994           0
      4883 W2       1628     TIP3     H1       HT       0.417000       1.00800           0
      4884 W2       1628     TIP3     H2       HT       0.417000       1.00800           0
      4885 W2       1629     TIP3     OH2      OT      -0.834000       15.9994           0
      4886 W2       1629     TIP3     H1       HT       0.417000       1.00800           0
      4887 W2       1629     TIP3     H2       HT       0.417000       1.00800           0
      4888 W2       1630     TIP3     OH2      OT      -0.834000       15.9994           0
      4889 W2       1630     TIP3     H1       HT       0.417000       1.00800           0
      4890 W2       1630     TIP3     H2       HT       0.417000       1.00800           0
      4891 W2       1631     TIP3     OH2      OT      -0.834000       15.9994           0
      4892 W2       1631     TIP3     H1       HT       0.417000       1.00800           0
      4893 W2       1631     TIP3     H2       HT       0.417000       1.00800           0
      4894 W2       1632     TIP3     OH2      OT      -0.834000       15.9994           0
      4895 W2       1632     TIP3     H1       HT       0.417000       1.00800           0
      4896 W2       1632     TIP3     H2       HT       0.417000       1.00800           0
      4897 W2       1692     TIP3     OH2      OT      -0.834000       15.9994           0
      4898 W2       1692     TIP3     H1       HT       0.417000       1.00800           0
      4899 W2       1692     TIP3     H2       HT       0.417000       1.00800           0
      4900 W2       1700     TIP3     OH2      OT      -0.834000       15.9994           0
      4901 W2       1700     TIP3     H1       HT       0.417000       1.00800           0
      4902 W2       1700     TIP3     H2       HT       0.417000       1.00800           0
      4903 W2       1740     TIP3     OH2      OT      -0.834000       15.9994           0
      4904 W2       1740     TIP3     H1       HT       0.417000       1.00800           0
      4905 W2       1740     TIP3     H2       HT       0.417000       1.00800           0
      4906 W2       1754     TIP3     OH2      OT      -0.834000       15.9994           0
      4907 W2       1754     TIP3     H1       HT       0.417000       1.00800           0
      4908 W2       1754     TIP3     H2       HT       0.417000       1.00800           0
      4909 W2       1760     TIP3     OH2      OT      -0.834000       15.9994           0
      4910 W2       1760     TIP3     H1       HT       0.417000       1.00800           0
      4911 W2       1760     TIP3     H2       HT       0.417000       1.00800           0
      4912 W2       1762     TIP3     OH2      OT      -0.834000       15.9994           0
      4913 W2       1762     TIP3     H1       HT       0.417000       1.00800           0
      4914 W2       1762     TIP3     H2       HT       0.417000       1.00800           0
      4915 W2       1764     TIP3     OH2      OT      -0.834000       15.9994           0
      4916 W2       1764     TIP3     H1       HT       0.417000       1.00800           0
      4917 W2       1764     TIP3     H2       HT       0.417000       1.00800           0
      4918 W2       1766     TIP3     OH2      OT      -0.834000       15.9994           0
      4919 W2       1766     TIP3     H1       HT       0.417000       1.00800           0
      4920 W2       1766     TIP3     H2       HT       0.417000       1.00800           0
      4921 W2       1771     TIP3     OH2      OT      -0.834000       15.9994           0
      4922 W2       1771     TIP3     H1       HT       0.417000       1.00800           0
      4923 W2       1771     TIP3     H2       HT       0.417000       1.00800           0
      4924 W2       1773     TIP3     OH2      OT      -0.834000       15.9994           0
      4925 W2       1773     TIP3     H1       HT       0.417000       1.00800           0
      4926 W2       1773     TIP3     H2       HT       0.417000       1.00800           0
      4927 W2       1799     TIP3     OH2      OT      -0.834000       15.9994           0
      4928 W2       1799     TIP3     H1       HT       0.417000       1.00800           0
      4929 W2       1799     TIP3     H2       HT       0.417000       1.00800           0
      4930 W2       1804     TIP3     OH2      OT      -0.834000       15.9994           0
      4931 W2       1804     TIP3     H1       HT       0.417000       1.00800           0
      4932 W2       1804     TIP3     H2       HT       0.417000       1.00800           0
      4933 W2       1846     TIP3     OH2      OT      -0.834000       15.9994           0
      4934 W2       1846     TIP3     H1       HT       0.417000       1.00800           0
      4935 W2       1846     TIP3     H2       HT       0.417000       1.00800           0
      4936 W2       1908     TIP3     OH2      OT      -0.834000       15.9994           0
      4937 W2       1908     TIP3     H1       HT       0.417000       1.00800           0
      4938 W2       1908     TIP3     H2       HT       0.417000       1.00800           0
      4939 W2       1916     TIP3     OH2      OT      -0.834000       15.9994           0
      4940 W2       1916     TIP3     H1       HT       0.417000       1.00800           0
      4941 W2       1916     TIP3     H2       HT       0.417000       1.00800           0
      4942 W2       1956     TIP3     OH2      OT      -0.834000       15.9994           0
      4943 W2       1956     TIP3     H1       HT       0.417000       1.00800           0
      4944 W2       1956     TIP3     H2       HT       0.417000       1.00800           0
      4945 W2       1970     TIP3     OH2      OT      -0.834000       15.9994           0
      4946 W2       1970     TIP3     H1       HT       0.417000       1.00800           0
      4947 W2       1970     TIP3     H2       HT       0.417000       1.00800           0
      4948 W2       1976     TIP3     OH2      OT      -0.834000       15.9994           0
      4949 W2       1976     TIP3     H1       HT       0.417000       1.00800           0
      4950 W2       1976     TIP3     H2       HT       0.417000       1.00800           0
      4951 W2       1978     TIP3     OH2      OT      -0.834000       15.9994           0
      4952 W2       1978     TIP3     H1       HT       0.417000       1.00800           0
      4953 W2       1978     TIP3     H2       HT       0.417000       1.00800           0
      4954 W2       1980     TIP3     OH2      OT      -0.834000       15.9994           0
      4955 W2       1980     TIP3     H1       HT       0.417000       1.00800           0
      4956 W2       1980     TIP3     H2       HT       0.417000       1.00800           0
      4957 W2       1982     TIP3     OH2      OT      -0.834000       15.9994           0
      4958 W2       1982     TIP3     H1       HT       0.417000       1.00800           0
      4959 W2       1982     TIP3     H2       HT       0.417000       1.00800           0
      4960 W2       1987     TIP3     OH2      OT      -0.834000       15.9994           0
      4961 W2       1987     TIP3     H1       HT       0.417000       1.00800           0
      4962 W2       1987     TIP3     H2       HT       0.417000       1.00800           0
      4963 W2       1989     TIP3     OH2      OT      -0.834000       15.9994           0
      4964 W2       1989     TIP3     H1       HT       0.417000       1.00800           0
      4965 W2       1989     TIP3     H2       HT       0.417000       1.00800           0
      4966 W2       2015     TIP3     OH2      OT      -0.834000       15.9994           0
      4967 W2       2015     TIP3     H1       HT       0.417000       1.00800           0
      4968 W2       2015     TIP3     H2       HT       0.417000       1.00800           0
      4969 W2       2020     TIP3     OH2      OT      -0.834000       15.9994           0
      4970 W2       2020     TIP3     H1       HT       0.417000       1.00800           0
      4971 W2       2020     TIP3     H2       HT       0.417000       1.00800           0
      4972 W2       2062     TIP3     OH2      OT      -0.834000       15.9994           0
      4973 W2       2062     TIP3     H1       HT       0.417000       1.00800           0
      4974 W2       2062     TIP3     H2       HT       0.417000       1.00800           0
      4975 W2       2118     TIP3     OH2      OT      -0.834000       15.9994           0
      4976 W2       2118     TIP3     H1       HT       0.417000       1.00800           0
      4977 W2       2118     TIP3     H2       HT       0.417000       1.00800           0
      4978 W2       2150     TIP3     OH2      OT      -0.834000       15.9994           0
      4979 W2       2150     TIP3     H1       HT       0.417000       1.00800           0
      4980 W2       2150     TIP3     H2       HT       0.417000       1.00800           0
      4981 W2       2162     TIP3     OH2      OT      -0.834000       15.9994           0
      4982 W2       2162     TIP3     H1       HT       0.417000       1.00800           0
      4983 W2       2162     TIP3     H2       HT       0.417000       1.00800           0
      4984 W2       2167     TIP3     OH2      OT      -0.834000       15.9994           0
      4985 W2       2167     TIP3     H1       HT       0.417000       1.00800           0
      4986 W2       2167     TIP3     H2       HT       0.417000       1.00800           0
      4987 W2       2170     TIP3     OH2      OT      -0.834000       15.9994           0
      4988 W2       2170     TIP3     H1       HT       0.417000       1.00800           0
      4989 W2       2170     TIP3     H2       HT       0.417000       1.00800           0
      4990 W2       2172     TIP3     OH2      OT      -0.834000       15.9994           0
      4991 W2       2172     TIP3     H1       HT       0.417000       1.00800           0
      4992 W2       2172     TIP3     H2       HT       0.417000       1.00800           0
      4993 W2       2177     TIP3     OH2      OT      -0.834000       15.9994           0
      4994 W2       2177     TIP3     H1       HT       0.417000       1.00800           0
      4995 W2       2177     TIP3     H2       HT       0.417000       1.00800           0
      4996 W2       2223     TIP3     OH2      OT      -0.834000       15.9994           0
      4997 W2       2223     TIP3     H1       HT       0.417000       1.00800           0
      4998 W2       2223     TIP3     H2       HT       0.417000       1.00800           0
      4999 W2       2284     TIP3     OH2      OT      -0.834000       15.9994           0
      5000 W2       2284     TIP3     H1       HT       0.417000       1.00800           0
      5001 W2       2284     TIP3     H2       HT       0.417000       1.00800           0
      5002 W2       2292     TIP3     OH2      OT      -0.834000       15.9994           0
      5003 W2       2292     TIP3     H1       HT       0.417000       1.00800           0
      5004 W2       2292     TIP3     H2       HT       0.417000       1.00800           0
      5005 W2       2332     TIP3     OH2      OT      -0.834000       15.9994           0
      5006 W2       2332     TIP3     H1       HT       0.417000       1.00800           0
      5007 W2       2332     TIP3     H2       HT       0.417000       1.00800           0
      5008 W2       2346     TIP3     OH2      OT      -0.834000       15.9994           0
      5009 W2       2346     TIP3     H1       HT       0.417000       1.00800           0
      5010 W2       2346     TIP3     H2       HT       0.417000       1.00800           0
      5011 W2       2352     TIP3     OH2      OT      -0.834000       15.9994           0
      5012 W2       2352     TIP3     H1       HT       0.417000       1.00800           0
      5013 W2       2352     TIP3     H2       HT       0.417000       1.00800           0
      5014 W2       2354     TIP3     OH2      OT      -0.834000       15.9994           0
      5015 W2       2354     TIP3     H1       HT       0.417000       1.00800           0
      5016 W2       2354     TIP3     H2       HT       0.417000       1.00800           0
      5017 W2       2356     TIP3     OH2      OT      -0.834000       15.9994           0
      5018 W2       2356     TIP3     H1       HT       0.417000       1.00800           0
      5019 W2       2356     TIP3     H2       HT       0.417000       1.00800           0
      5020 W2       2358     TIP3     OH2      OT      -0.834000       15.9994           0
      5021 W2       2358     TIP3     H1       HT       0.417000       1.00800           0
      5022 W2       2358     TIP3     H2       HT       0.417000       1.00800           0
      5023 W2       2363     TIP3     OH2      OT      -0.834000       15.9994           0
      5024 W2       2363     TIP3     H1       HT       0.417000       1.00800           0
      5025 W2       2363     TIP3     H2       HT       0.417000       1.00800           0
      5026 W2       2365     TIP3     OH2      OT      -0.834000       15.9994           0
      5027 W2       2365     TIP3     H1       HT       0.417000       1.00800           0
      5028 W2       2365     TIP3     H2       HT       0.417000       1.00800           0
      5029 W2       2391     TIP3     OH2      OT      -0.834000       15.9994           0
      5030 W2       2391     TIP3     H1       HT       0.417000       1.00800           0
      5031 W2       2391     TIP3     H2       HT       0.417000       1.00800           0
      5032 W2       2396     TIP3     OH2      OT      -0.834000       15.9994           0
      5033 W2       2396     TIP3     H1       HT       0.417000       1.00800           0
      5034 W2       2396     TIP3     H2       HT       0.417000       1.00800           0
      5035 W2       2438     TIP3     OH2      OT      -0.834000       15.9994           0
      5036 W2       2438     TIP3     H1       HT       0.417000       1.00800           0
      5037 W2       2438     TIP3     H2       HT       0.417000       1.00800           0
      5038 W2       2500     TIP3     OH2      OT      -0.834000       15.9994           0
      5039 W2       2500     TIP3     H1       HT       0.417000       1.00800           0
      5040 W2       2500     TIP3     H2       HT       0.417000       1.00800           0
      5041 W2       2508     TIP3     OH2      OT      -0.834000       15.9994           0
      5042 W2       2508     TIP3     H1       HT       0.417000       1.00800           0
      5043 W2       2508     TIP3     H2       HT       0.417000       1.00800           0
      5044 W2       2548     TIP3     OH2      OT      -0.834000       15.9994           0
      5045 W2       2548     TIP3     H1       HT       0.417000       1.00800           0
      5046 W2       2548     TIP3     H2       HT       0.417000       1.00800           0
      5047 W2       2562     TIP3     OH2      OT      -0.834000       15.9994           0
      5048 W2       2562     TIP3     H1       HT       0.417000       1.00800           0
      5049 W2       2562     TIP3     H2       HT       0.417000       1.00800           0
      5050 W2       2568     TIP3     OH2      OT      -0.834000       15.9994           0
      5051 W2       2568     TIP3     H1       HT       0.417000       1.00800           0
      5052 W2       2568     TIP3     H2       HT       0.417000       1.00800           0
      5053 W2       2570     TIP3     OH2      OT      -0.834000       15.9994           0
      5054 W2       2570     TIP3     H1       HT       0.417000       1.00800           0
      5055 W2       2570     TIP3     H2       HT       0.417000       1.00800           0
      5056 W2       2572     TIP3     OH2      OT      -0.834000       15.9994           0
      5057 W2       2572     TIP3     H1       HT       0.417000       1.00800           0
      5058 W2       2572     TIP3     H2       HT       0.417000       1.00800           0
      5059 W2       2574     TIP3     OH2      OT      -0.834000       15.9994           0
      5060 W2       2574     TIP3     H1       HT       0.417000       1.00800           0
      5061 W2       2574     TIP3     H2       HT       0.417000       1.00800           0
      5062 W2       2579     TIP3     OH2      OT      -0.834000       15.9994           0
      5063 W2       2579     TIP3     H1       HT       0.417000       1.00800           0
      5064 W2       2579     TIP3     H2       HT       0.417000       1.00800           0
      5065 W2       2581     TIP3     OH2      OT      -0.834000       15.9994           0
      5066 W2       2581     TIP3     H1       HT       0.417000       1.00800           0
      5067 W2       2581     TIP3     H2       HT       0.417000       1.00800           0
      5068 W2       2607     TIP3     OH2      OT      -0.834000       15.9994           0
      5069 W2       2607     TIP3     H1       HT       0.417000       1.00800           0
      5070 W2       2607     TIP3     H2       HT       0.417000       1.00800           0
      5071 W2       2612     TIP3     OH2      OT      -0.834000       15.9994           0
      5072 W2       2612     TIP3     H1       HT       0.417000       1.00800           0
      5073 W2       2612     TIP3     H2       HT       0.417000       1.00800           0
      5074 W2       2654     TIP3     OH2      OT      -0.834000       15.9994           0
      5075 W2       2654     TIP3     H1       HT       0.417000       1.00800           0
      5076 W2       2654     TIP3     H2       HT       0.417000       1.00800           0
      5077 W2       2710     TIP3     OH2      OT      -0.834000       15.9994           0
      5078 W2       2710     TIP3     H1       HT       0.417000       1.00800           0
      5079 W2       2710     TIP3     H2       HT       0.417000       1.00800           0
      5080 W2       2742     TIP3     OH2      OT      -0.834000       15.9994           0
      5081 W2       2742     TIP3     H1       HT       0.417000       1.00800           0
      5082 W2       2742     TIP3     H2       HT       0.417000       1.00800           0
      5083 W2       2754     TIP3     OH2      OT      -0.834000       15.9994           0
      5084 W2       2754     TIP3     H1       HT       0.417000       1.00800           0
      5085 W2       2754     TIP3     H2       HT       0.417000       1.00800           0
      5086 W2       2759     TIP3     OH2      OT      -0.834000       15.9994           0
      5087 W2       2759     TIP3     H1       HT       0.417000       1.00800           0
      5088 W2       2759     TIP3     H2       HT       0.417000       1.00800           0
      5089 W2       2762     TIP3     OH2      OT      -0.834000       15.9994           0
      5090 W2       2762     TIP3     H1       HT       0.417000       1.00800           0
      5091 W2       2762     TIP3     H2       HT       0.417000       1.00800           0
      5092 W2       2764     TIP3     OH2      OT      -0.834000       15.9994           0
      5093 W2       2764     TIP3     H1       HT       0.417000       1.00800           0
      5094 W2       2764     TIP3     H2       HT       0.417000       1.00800           0
      5095 W2       2769     TIP3     OH2      OT      -0.834000       15.9994           0
      5096 W2       2769     TIP3     H1       HT       0.417000       1.00800           0
      5097 W2       2769     TIP3     H2       HT       0.417000       1.00800           0
      5098 W2       2815     TIP3     OH2      OT      -0.834000       15.9994           0
      5099 W2       2815     TIP3     H1       HT       0.417000       1.00800           0
      5100 W2       2815     TIP3     H2       HT       0.417000       1.00800           0
      5101 W2       2863     TIP3     OH2      OT      -0.834000       15.9994           0
      5102 W2       2863     TIP3     H1       HT       0.417000       1.00800           0
      5103 W2       2863     TIP3     H2       HT       0.417000       1.00800           0
      5104 W2       2871     TIP3     OH2      OT      -0.834000       15.9994           0
      5105 W2       2871     TIP3     H1       HT       0.417000       1.00800           0
      5106 W2       2871     TIP3     H2       HT       0.417000       1.00800           0
      5107 W2       2904     TIP3     OH2      OT      -0.834000       15.9994           0
      5108 W2       2904     TIP3     H1       HT       0.417000       1.00800           0
      5109 W2       2904     TIP3     H2       HT       0.417000       1.00800           0
      5110 W2       2916     TIP3     OH2      OT      -0.834000       15.9994           0
      5111 W2       2916     TIP3     H1       HT       0.417000       1.00800           0
      5112 W2       2916     TIP3     H2       HT       0.417000       1.00800           0
      5113 W2       2919     TIP3     OH2      OT      -0.834000       15.9994           0
      5114 W2       2919     TIP3     H1       HT       0.417000       1.00800           0
      5115 W2       2919     TIP3     H2       HT       0.417000       1.00800           0
      5116 W2       2921     TIP3     OH2      OT      -0.834000       15.9994           0
      5117 W2       2921     TIP3     H1       HT       0.417000       1.00800           0
      5118 W2       2921     TIP3     H2       HT       0.417000       1.00800           0
      5119 W2       2926     TIP3     OH2      OT      -0.834000       15.9994           0
      5120 W2       2926     TIP3     H1       HT       0.417000       1.00800           0
      5121 W2       2926     TIP3     H2       HT       0.417000       1.00800           0
      5122 W2       2928     TIP3     OH2      OT      -0.834000       15.9994           0
      5123 W2       2928     TIP3     H1       HT       0.417000       1.00800           0
      5124 W2       2928     TIP3     H2       HT       0.417000       1.00800           0
      5125 W2       2948     TIP3     OH2      OT      -0.834000       15.9994           0
      5126 W2       2948     TIP3     H1       HT       0.417000       1.00800           0
      5127 W2       2948     TIP3     H2       HT       0.417000       1.00800           0
      5128 W2       2953     TIP3     OH2      OT      -0.834000       15.9994           0
      5129 W2       2953     TIP3     H1       HT       0.417000       1.00800           0
      5130 W2       2953     TIP3     H2       HT       0.417000       1.00800           0
      5131 W2       3026     TIP3     OH2      OT      -0.834000       15.9994           0
      5132 W2       3026     TIP3     H1       HT       0.417000       1.00800           0
      5133 W2       3026     TIP3     H2       HT       0.417000       1.00800           0
      5134 W2       3034     TIP3     OH2      OT      -0.834000       15.9994           0
      5135 W2       3034     TIP3     H1       HT       0.417000       1.00800           0
      5136 W2       3034     TIP3     H2       HT       0.417000       1.00800           0
      5137 W2       3067     TIP3     OH2      OT      -0.834000       15.9994           0
      5138 W2       3067     TIP3     H1       HT       0.417000       1.00800           0
      5139 W2       3067     TIP3     H2       HT       0.417000       1.00800           0
      5140 W2       3079     TIP3     OH2      OT      -0.834000       15.9994           0
      5141 W2       3079     TIP3     H1       HT       0.417000       1.00800           0
      5142 W2       3079     TIP3     H2       HT       0.417000       1.00800           0
      5143 W2       3082     TIP3     OH2      OT      -0.834000       15.9994           0
      5144 W2       3082     TIP3     H1       HT       0.417000       1.00800           0
      5145 W2       3082     TIP3     H2       HT       0.417000       1.00800           0
      5146 W2       3084     TIP3     OH2      OT      -0.834000       15.9994           0
      5147 W2       3084     TIP3     H1       HT       0.417000       1.00800           0
      5148 W2       3084     TIP3     H2       HT       0.417000       1.00800           0
      5149 W2       3089     TIP3     OH2      OT      -0.834000       15.9994           0
      5150 W2       3089     TIP3     H1       HT       0.417000       1.00800           0
      5151 W2       3089     TIP3     H2       HT       0.417000       1.00800           0
      5152 W2       3091     TIP3     OH2      OT      -0.834000       15.9994           0
      5153 W2       3091     TIP3     H1       HT       0.417000       1.00800           0
      5154 W2       3091     TIP3     H2       HT       0.417000       1.00800           0
      5155 W2       3111     TIP3     OH2      OT      -0.834000       15.9994           0
      5156 W2       3111     TIP3     H1       HT       0.417000       1.00800           0
      5157 W2       3111     TIP3     H2       HT       0.417000       1.00800           0
      5158 W2       3116     TIP3     OH2      OT      -0.834000       15.9994           0
      5159 W2       3116     TIP3     H1       HT       0.417000       1.00800           0
      5160 W2       3116     TIP3     H2       HT       0.417000       1.00800           0
      5161 W2       3185     TIP3     OH2      OT      -0.834000       15.9994           0
      5162 W2       3185     TIP3     H1       HT       0.417000       1.00800           0
      5163 W2       3185     TIP3     H2       HT       0.417000       1.00800           0
      5164 W2       3214     TIP3     OH2      OT      -0.834000       15.9994           0
      5165 W2       3214     TIP3     H1       HT       0.417000       1.00800           0
      5166 W2       3214     TIP3     H2       HT       0.417000       1.00800           0
      5167 W2       3224     TIP3     OH2      OT      -0.834000       15.9994           0
      5168 W2       3224     TIP3     H1       HT       0.417000       1.00800           0
      5169 W2       3224     TIP3     H2       HT       0.417000       1.00800           0
      5170 W2       3227     TIP3     OH2      OT      -0.834000       15.9994           0
      5171 W2       3227     TIP3     H1       HT       0.417000       1.00800           0
      5172 W2       3227     TIP3     H2       HT       0.417000       1.00800           0
      5173 W2       3229     TIP3     OH2      OT      -0.834000       15.9994           0
      5174 W2       3229     TIP3     H1       HT       0.417000       1.00800           0
      5175 W2       3229     TIP3     H2       HT       0.417000       1.00800           0
      5176 W2       3234     TIP3     OH2      OT      -0.834000       15.9994           0
      5177 W2       3234     TIP3     H1       HT       0.417000       1.00800           0
      5178 W2       3234     TIP3     H2       HT       0.417000       1.00800           0

      5178 !NBOND: bonds
         1         2         1         3         2         3         4         5
         4         6         5         6         7         8         7         9
         8         9        10        11        10        12        11        12
        13        14        13        15        14        15        16        17
        16        18        17        18        19        20        19        21
        20        21        22        23        22        24        23        24
        25        26        25        27        26        27        28        29
        28        30        29        30        31        32        31        33
        32        33        34        35        34        36        35        36
        37        38        37        39        38        39        40        41
        40        42        41        42        43        44        43        45
        44        45        46        47        46        48        47        48
        49        50        49        51        50        51        52        53
        52        54        53        54        55        56        55        57
        56        57        58        59        58        60        59        60
        61        62        61        63        62        63        64        65
        64        66        65        66        67        68        67        69
        68        69        70        71        70        72        71        72
        73        74        73        75        74        75        76        77
        76        78        77        78        79        80        79        81
        80        81        82        83        82        84        83        84
        85        86        85        87        86        87        88        89
        88        90        89        90        91        92        91        93
        92        93        94        95        94        96        95        96
        97        98        97        99        98        99       100       101
       100       102       101       102       103       104       103       105
       104       105       106       107       106       108       107       108
       109       110       109       111       110       111       112       113
       112       114       113       114       115       116       115       117
       116       117       118       119       118       120       119       120
       121       122       121       123       122       123       124       125
       124       126       125       126       127       128       127       129
       128       129       130       131       130       132       131       132
       133       134       133       135       134       135       136       137
       136       138       137       138       139       140       139       141
       140       141       142       143       142       144       143       144
       145       146       145       147       146       147       148       149
       148       150       149       150       151       152       151       153
       152       153       154       155       154       156       155       156
       157       158       157       159       158       159       160       161
       160       162       161       162       163       164       163       165
       164       165       166       167       166       168       167       168
       169       170       169       171       170       171       172       173
       172       174       173       174       175       176       175       177
       176       177       178       179       178       180       179       180
       181       182       181       183       182       183       184       185
       184       186       185       186       187       188       187       189
       188       189       190       191       190       192       191       192
       193       194       193       195       194       195       196       197
       196       198       197       198       199       200       199       201
       200       201       202       203       202       204       203       204
       205       206       205       207       206       207       208       209
       208       210       209       210       211       212       211       213
       212       213       214       215       214       216       215       216
       217       218       217       219       218       219       220       221
       220       222       221       222       223       224       223       225
       224       225       226       227       226       228       227       228
       229       230       229       231       230       231       232       233
       232       234       233       234       235       236       235       237
       236       237       238       239       238       240       239       240
       241       242       241       243       242       243       244       245
       244       246       245       246       247       248       247       249
       248       249       250       251       250       252       251       252
       253       254       253       255       254       255       256       257
       256       258       257       258       259       260       259       261
       260       261       262       263       262       264       263       264
       265       266       265       267       266       267       268       269
       268       270       269       270       271       272       271       273
       272       273       274       275       274       276       275       276
       277       278       277       279       278       279       280       281
       280       282       281       282       283       284       283       285
       284       285       286       287       286       288       287       288
       289       290       289       291       290       291       292       293
       292       294       293       294       295       296       295       297
       296       297       298       299       298       300       299       300
       301       302       301       303       302       303       304       305
       304       306       305       306       307       308       307       309
       308       309       310       311       310       312       311       312
       313       314       313       315       314       315       316       317
       316       318       317       318       319       320       319       321
       320       321       322       323       322       324       323       324
       325       326       325       327       326       327       328       329
       328       330       329       330       331       332       331       333
       332       333       334       335       334       336       335       336
       337       338       337       339       338       339       340       341
       340       342       341       342       343       344       343       345
       344       345       346       347       346       348       347       348
       349       350       349       351       350       351       352       353
       352       354       353       354       355       356       355       357
       356       357       358       359       358       360       359       360
       361       362       361       363       362       363       364       365
       364       366       365       366       367       368       367       369
       368       369       370       371       370       372       371       372
       373       374       373       375       374       375       376       377
       376       378       377       378       379       380       379       381
       380       381       382       383       382       384       383       384
       385       386       385       387       386       387       388       389
       388       390       389       390       391       392       391       393
       392       393       394       395       394       396       395       396
       397       398       397       399       398       399       400       401
       400       402       401       402       403       404       403       405
       404       405       406       407       406       408       407       408
       409       410       409       411       410       411       412       413
       412       414       413       414       415       416       415       417
       416       417       418       419       418       420       419       420
       421       422       421       423       422       423       424       425
       424       426       425       426       427       428       427       429
       428       429       430       431       430       432       431       432
       433       434       433       435       434       435       436       437
       436       438       437       438       439       440       439       441
       440       441       442       443       442       444       443       444
       445       446       445       447       446       447       448       449
       448       450       449       450       451       452       451       453
       452       453       454       455       454       456       455       456
       457       458       457       459       458       459       460       461
       460       462       461       462       463       464       463       465
       464       465       466       467       466       468       467       468
       469       470       469       471       470       471       472       473
       472       474       473       474       475       476       475       477
       476       477       478       479       478       480       479       480
       481       482       481       483       482       483       484       485
       484       486       485       486       487       488       487       489
       488       489       490       491       490       492       491       492
       493       494       493       495       494       495       496       497
       496       498       497       498       499       500       499       501
       500       501       502       503       502       504       503       504
       505       506       505       507       506       507       508       509
       508       510       509       510       511       512       511       513
       512       513       514       515       514       516       515       516
       517       518       517       519       518       519       520       521
       520       522       521       522       523       524       523       525
       524       525       526       527       526       528       527       528
       529       530       529       531       530       531       532       533
       532       534       533       534       535       536       535       537
       536       537       538       539       538       540       539       540
       541       542       541       543       542       543       544       545
       544       546       545       546       547       548       547       549
       548       549       550       551       550       552       551       552
       553       554       553       555       554       555       556       557
       556       558       557       558       559       560       559       561
       560       561       562       563       562       564       563       564
       565       566       565       567       566       567       568       569
       568       570       569       570       571       572       571       573
       572       573       574       575       574       576       575       576
       577       578       577       579       578       579       580       581
       580       582       581       582       583       584       583       585
       584       585       586       587       586       588       587       588
       589       590       589       591       590       591       592       593
       592       594       593       594       595       596       595       597
       596       597       598       599       598       600       599       600
       601       602       601       603       602       603       604       605
       604       606       605       606       607       608       607       609
       608       609       610       611       610       612       611       612
       613       614       613       615       614       615       616       617
       616       618       617       618       619       620       619       621
       620       621       622       623       622       624       623       624
       625       626       625       627       626       627       628       629
       628       630       629       630       631       632       631       633
       632       633       634       635       634       636       635       636
       637       638       637       639       638       639       640       641
       640       642       641       642       643       644       643       645
       644       645       646       647       646       648       647       648
       649       650       649       651       650       651       652       653
       652       654       653       654       655       656       655       657
       656       657       658       659       658       660       659       660
       661       662       661       663       662       663       664       665
       664       666       665       666       667       668       667       669
       668       669       670       671       670       672       671       672
       673       674       673       675       674       675       676       677
       676       678       677       678       679       680       679       681
       680       681       682       683       682       684       683       684
       685       686       685       687       686       687       688       689
       688       690       689       690       691       692       691       693
       692       693       694       695       694       696       695       696
       697       698       697       699       698       699       700       701
       700       702       701       702       703       704       703       705
       704       705       706       707       706       708       707       708
       709       710       709       711       710       711       712       713
       712       714       713       714       715       716       715       717
       716       717       718       719       718       720       719       720
       721       722       721       723       722       723       724       725
       724       726       725       726       727       728       727       729
       728       729       730       731       730       732       731       732
       733       734       733       735       734       735       736       737
       736       738       737       738       739       740       739       741
       740       741       742       743       742       744       743       744
       745       746       745       747       746       747       748       749
       748       750       749       750       751       752       751       753
       752       753       754       755       754       756       755       756
       757       758       757       759       758       759       760       761
       760       762       761       762       763       764       763       765
       764       765       766       767       766       768       767       768
       769       770       769       771       770       771       772       773
       772       774       773       774       775       776       775       777
       776       777       778       779       778       780       779       780
       781       782       781       783       782       783       784       785
       784       786       785       786       787       788       787       789
       788       789       790       791       790       792       791       792
       793       794       793       795       794       795       796       797
       796       798       797       798       799       800       799       801
       800       801       802       803       802       804       803       804
       805       806       805       807       806       807       808       809
       808       810       809       810       811       812       811       813
       812       813       814       815       814       816       815       816
       817       818       817       819       818       819       820       821
       820       822       821       822       823       824       823       825
       824       825       826       827       826       828       827       828
       829       830       829       831       830       831       832       833
       832       834       833       834       835       836       835       837
       836       837       838       839       838       840       839       840
       841       842       841       843       842       843       844       845
       844       846       845       846       847       848       847       849
       848       849       850       851       850       852       851       852
       853       854       853       855       854       855       856       857
       856       858       857       858       859       860       859       861
       860       861       862       863       862       864       863       864
       865       866       865       867       866       867       868       869
       868       870       869       870       871       872       871       873
       872       873       874       875       874       876       875       876
       877       878       877       879       878       879       880       881
       880       882       881       882       883       884       883       885
       884       885       886       887       886       888       887       888
       889       890       889       891       890       891       892       893
       892       894       893       894       895       896       895       897
       896       897       898       899       898       900       899       900
       901       902       901       903       902       903       904       905
       904       906       905       906       907       908       907       909
       908       909       910       911       910       912       911       912
       913       914       913       915       914       915       916       917
       916       918       917       918       919       920       919       921
       920       921       922       923       922       924       923       924
       925       926       925       927       926       927       928       929
       928       930       929       930       931       932       931       933
       932       933       934       935       934       936       935       936
       937       938       937       939       938       939       940       941
       940       942       941       942       943       944       943       945
       944       945       946       947       946       948       947       948
       949       950       949       951       950       951       952       953
       952       954       953       954       955       956       955       957
       956       957       958       959       958       960       959       960
       961       962       961       963       962       963       964       965
       964       966       965       966       967       968       967       969
       968       969       970       971       970       972       971       972
       973       974       973       975       974       975       976       977
       976       978       977       978       979       980       979       981
       980       981       982       983       982       984       983       984
       985       986       985       987       986       987       988       989
       988       990       989       990       991       992       991       993
       992       993       994       995       994       996       995       996
       997       998       997       999       998       999      1000      1001
      1000      1002      1001      1002      1003      1004      1003      1005
      1004      1005      1006      1007      1006      1008      1007      1008
      1009      1010      1009      1011      1010      1011      1012      1013
      1012      1014      1013      1014      1015      1016      1015      1017
      1016      1017      1018      1019      1018      1020      1019      1020
      1021      1022      1021      1023      1022      1023      1024      1025
      1024      1026      1025      1026      1027      1028      1027      1029
      1028      1029      1030      1031      1030      1032      1031      1032
      1033      1034      1033      1035      1034      1035      1036      1037
      1036      1038      1037      1038      1039      1040      1039      1041
      1040      1041      1042      1043      1042      1044      1043      1044
      1045      1046      1045      1047      1046      1047      1048      1049
      1048      1050      1049      1050      1051      1052      1051      1053
      1052      1053      1054      1055      1054      1056      1055      1056
      1057      1058      1057      1059      1058      1059      1060      1061
      1060      1062      1061      1062      1063      1064      1063      1065
      1064      1065      1066      1067      1066      1068      1067      1068
      1069      1070      1069      1071      1070      1071      1072      1073
      1072      1074      1073      1074      1075      1076      1075      1077
      1076      1077      1078      1079      1078      1080      1079      1080
      1081      1082      1081      1083      1082      1083      1084      1085
      1084      1086      1085      1086      1087      1088      1087      1089
      1088      1089      1090      1091      1090      1092      1091      1092
      1093      1094      1093      1095      1094      1095      1096      1097
      1096      1098      1097      1098      1099      1100      1099      1101
      1100      1101      1102      1103      1102      1104      1103      1104
      1105      1106      1105      1107      1106      1107      1108      1109
      1108      1110      1109      1110      1111      1112      1111      1113
      1112      1113      1114      1115      1114      1116      1115      1116
      1117      1118      1117      1119      1118      1119      1120      1121
      1120      1122      1121      1122      1123      1124      1123      1125
      1124      1125      1126      1127      1126      1128      1127      1128
      1129      1130      1129      1131      1130      1131      1132      1133
      1132      1134      1133      1134      1135      1136      1135      1137
      1136      1137      1138      1139      1138      1140      1139      1140
      1141      1142      1141      1143      1142      1143      1144      1145
      1144      1146      1145      1146      1147      1148      1147      1149
      1148      1149      1150      1151      1150      1152      1151      1152
      1153      1154      1153      1155      1154      1155      1156      1157
      1156      1158      1157      1158      1159      1160      1159      1161
      1160      1161      1162      1163      1162      1164      1163      1164
      1165      1166      1165      1167      1166      1167      1168      1169
      1168      1170      1169      1170      1171      1172      1171      1173
      1172      1173      1174      1175      1174      1176      1175      1176
      1177      1178      1177      1179      1178      1179      1180      1181
      1180      1182      1181      1182      1183      1184      1183      1185
      1184      1185      1186      1187      1186      1188      1187      1188
      1189      1190      1189      1191      1190      1191      1192      1193
      1192      1194      1193      1194      1195      1196      1195      1197
      1196      1197      1198      1199      1198      1200      1199      1200
      1201      1202      1201      1203      1202      1203      1204      1205
      1204      1206      1205      1206      1207      1208      1207      1209
      1208      1209      1210      1211      1210      1212      1211      1212
      1213      1214      1213      1215      1214      1215      1216      1217
      1216      1218      1217      1218      1219      1220      1219      1221
      1220      1221      1222      1223      1222      1224      1223      1224
      1225      1226      1225      1227      1226      1227      1228      1229
      1228      1230      1229      1230      1231      1232      1231      1233
      1232      1233      1234      1235      1234      1236      1235      1236
      1237      1238      1237      1239      1238      1239      1240      1241
      1240      1242      1241      1242      1243      1244      1243      1245
      1244      1245      1246      1247      1246      1248      1247      1248
      1249      1250      1249      1251      1250      1251      1252      1253
      1252      1254      1253      1254      1255      1256      1255      1257
      1256      1257      1258      1259      1258      1260      1259      1260
      1261      1262      1261      1263      1262      1263      1264      1265
      1264      1266      1265      1266      1267      1268      1267      1269
      1268      1269      1270      1271      1270      1272      1271      1272
      1273      1274      1273      1275      1274      1275      1276      1277
      1276      1278      1277      1278      1279      1280      1279      1281
      1280      1281      1282      1283      1282      1284      1283      1284
      1285      1286      1285      1287      1286      1287      1288      1289
      1288      1290      1289      1290      1291      1292      1291      1293
      1292      1293      1294      1295      1294      1296      1295      1296
      1297      1298      1297      1299      1298      1299      1300      1301
      1300      1302      1301      1302      1303      1304      1303      1305
      1304      1305      1306      1307      1306      1308      1307      1308
      1309      1310      1309      1311      1310      1311      1312      1313
      1312      1314      1313      1314      1315      1316      1315      1317
      1316      1317      1318      1319      1318      1320      1319      1320
      1321      1322      1321      1323      1322      1323      1324      1325
      1324      1326      1325      1326      1327      1328      1327      1329
      1328      1329      1330      1331      1330      1332      1331      1332
      1333      1334      1333      1335      1334      1335      1336      1337
      1336      1338      1337      1338      1339      1340      1339      1341
      1340      1341      1342      1343      1342      1344      1343      1344
      1345      1346      1345      1347      1346      1347      1348      1349
      1348      1350      1349      1350      1351      1352      1351      1353
      1352      1353      1354      1355      1354      1356      1355      1356
      1357      1358      1357      1359      1358      1359      1360      1361
      1360      1362      1361      1362      1363      1364      1363      1365
      1364      1365      1366      1367      1366      1368      1367      1368
      1369      1370      1369      1371      1370      1371      1372      1373
      1372      1374      1373      1374      1375      1376      1375      1377
      1376      1377      1378      1379      1378      1380      1379      1380
      1381      1382      1381      1383      1382      1383      1384      1385
      1384      1386      1385      1386      1387      1388      1387      1389
      1388      1389      1390      1391      1390      1392      1391      1392
      1393      1394      1393      1395      1394      1395      1396      1397
      1396      1398      1397      1398      1399      1400      1399      1401
      1400      1401      1402      1403      1402      1404      1403      1404
      1405      1406      1405      1407      1406      1407      1408      1409
      1408      1410      1409      1410      1411      1412      1411      1413
      1412      1413      1414      1415      1414      1416      1415      1416
      1417      1418      1417      1419      1418      1419      1420      1421
      1420      1422      1421      1422      1423      1424      1423      1425
      1424      1425      1426      1427      1426      1428      1427      1428
      1429      1430      1429      1431      1430      1431      1432      1433
      1432      1434      1433      1434      1435      1436      1435      1437
      1436      1437      1438      1439      1438      1440      1439      1440
      1441      1442      1441      1443      1442      1443      1444      1445
      1444      1446      1445      1446      1447      1448      1447      1449
      1448      1449      1450      1451      1450      1452      1451      1452
      1453      1454      1453      1455      1454      1455      1456      1457
      1456      1458      1457      1458      1459      1460      1459      1461
      1460      1461      1462      1463      1462      1464      1463      1464
      1465      1466      1465      1467      1466      1467      1468      1469
      1468      1470      1469      1470      1471      1472      1471      1473
      1472      1473      1474      1475      1474      1476      1475      1476
      1477      1478      1477      1479      1478      1479      1480      1481
      1480      1482      1481      1482      1483      1484      1483      1485
      1484      1485      1486      1487      1486      1488      1487      1488
      1489      1490      1489      1491      1490      1491      1492      1493
      1492      1494      1493      1494      1495      1496      1495      1497
      1496      1497      1498      1499      1498      1500      1499      1500
      1501      1502      1501      1503      1502      1503      1504      1505
      1504      1506      1505      1506      1507      1508      1507      1509
      1508      1509      1510      1511      1510      1512      1511      1512
      1513      1514      1513      1515      1514      1515      1516      1517
      1516      1518      1517      1518      1519      1520      1519      1521
      1520      1521      1522      1523      1522      1524      1523      1524
      1525      1526      1525      1527      1526      1527      1528      1529
      1528      1530      1529      1530      1531      1532      1531      1533
      1532      1533      1534      1535      1534      1536      1535      1536
      1537      1538      1537      1539      1538      1539      1540      1541
      1540      1542      1541      1542      1543      1544      1543      1545
      1544      1545      1546      1547      1546      1548      1547      1548
      1549      1550      1549      1551      1550      1551      1552      1553
      1552      1554      1553      1554      1555      1556      1555      1557
      1556      1557      1558      1559      1558      1560      1559      1560
      1561      1562      1561      1563      1562      1563      1564      1565
      1564      1566      1565      1566      1567      1568      1567      1569
      1568      1569      1570      1571      1570      1572      1571      1572
      1573      1574      1573      1575      1574      1575      1576      1577
      1576      1578      1577      1578      1579      1580      1579      1581
      1580      1581      1582      1583      1582      1584      1583      1584
      1585      1586      1585      1587      1586      1587      1588      1589
      1588      1590      1589      1590      1591      1592      1591      1593
      1592      1593      1594      1595      1594      1596      1595      1596
      1597      1598      1597      1599      1598      1599      1600      1601
      1600      1602      1601      1602      1603      1604      1603      1605
      1604      1605      1606      1607      1606      1608      1607      1608
      1609      1610      1609      1611      1610      1611      1612      1613
      1612      1614      1613      1614      1615      1616      1615      1617
      1616      1617      1618      1619      1618      1620      1619      1620
      1621      1622      1621      1623      1622      1623      1624      1625
      1624      1626      1625      1626      1627      1628      1627      1629
      1628      1629      1630      1631      1630      1632      1631      1632
      1633      1634      1633      1635      1634      1635      1636      1637
      1636      1638      1637      1638      1639      1640      1639      1641
      1640      1641      1642      1643      1642      1644      1643      1644
      1645      1646      1645      1647      1646      1647      1648      1649
      1648      1650      1649      1650      1651      1652      1651      1653
      1652      1653      1654      1655      1654      1656      1655      1656
      1657      1658      1657      1659      1658      1659      1660      1661
      1660      1662      1661      1662      1663      1664      1663      1665
      1664      1665      1666      1667      1666      1668      1667      1668
      1669      1670      1669      1671      1670      1671      1672      1673
      1672      1674      1673      1674      1675      1676      1675      1677
      1676      1677      1678      1679      1678      1680      1679      1680
      1681      1682      1681      1683      1682      1683      1684      1685
      1684      1686      1685      1686      1687      1688      1687      1689
      1688      1689      1690      1691      1690      1692      1691      1692
      1693      1694      1693      1695      1694      1695      1696      1697
      1696      1698      1697      1698      1699      1700      1699      1701
      1700      1701      1702      1703      1702      1704      1703      1704
      1705      1706      1705      1707      1706      1707      1708      1709
      1708      1710      1709      1710      1711      1712      1711      1713
      1712      1713      1714      1715      1714      1716      1715      1716
      1717      1718      1717      1719      1718      1719      1720      1721
      1720      1722      1721      1722      1723      1724      1723      1725
      1724      1725      1726      1727      1726      1728      1727      1728
      1729      1730      1729      1731      1730      1731      1732      1733
      1732      1734      1733      1734      1735      1736      1735      1737
      1736      1737      1738      1739      1738      1740      1739      1740
      1741      1742      1741      1743      1742      1743      1744      1745
      1744      1746      1745      1746      1747      1748      1747      1749
      1748      1749      1750      1751      1750      1752      1751      1752
      1753      1754      1753      1755      1754      1755      1756      1757
      1756      1758      1757      1758      1759      1760      1759      1761
      1760      1761      1762      1763      1762      1764      1763      1764
      1765      1766      1765      1767      1766      1767      1768      1769
      1768      1770      1769      1770      1771      1772      1771      1773
      1772      1773      1774      1775      1774      1776      1775      1776
      1777      1778      1777      1779      1778      1779      1780      1781
      1780      1782      1781      1782      1783      1784      1783      1785
      1784      1785      1786      1787      1786      1788      1787      1788
      1789      1790      1789      1791      1790      1791      1792      1793
      1792      1794      1793      1794      1795      1796      1795      1797
      1796      1797      1798      1799      1798      1800      1799      1800
      1801      1802      1801      1803      1802      1803      1804      1805
      1804      1806      1805      1806      1807      1808      1807      1809
      1808      1809      1810      1811      1810      1812      1811      1812
      1813      1814      1813      1815      1814      1815      1816      1817
      1816      1818      1817      1818      1819      1820      1819      1821
      1820      1821      1822      1823      1822      1824      1823      1824
      1825      1826      1825      1827      1826      1827      1828      1829
      1828      1830      1829      1830      1831      1832      1831      1833
      1832      1833      1834      1835      1834      1836      1835      1836
      1837      1838      1837      1839      1838      1839      1840      1841
      1840      1842      1841      1842      1843      1844      1843      1845
      1844      1845      1846      1847      1846      1848      1847      1848
      1849      1850      1849      1851      1850      1851      1852      1853
      1852      1854      1853      1854      1855      1856      1855      1857
      1856      1857      1858      1859      1858      1860      1859      1860
      1861      1862      1861      1863      1862      1863      1864      1865
      1864      1866      1865      1866      1867      1868      1867      1869
      1868      1869      1870      1871      1870      1872      1871      1872
      1873      1874      1873      1875      1874      1875      1876      1877
      1876      1878      1877      1878      1879      1880      1879      1881
      1880      1881      1882      1883      1882      1884      1883      1884
      1885      1886      1885      1887      1886      1887      1888      1889
      1888      1890      1889      1890      1891      1892      1891      1893
      1892      1893      1894      1895      1894      1896      1895      1896
      1897      1898      1897      1899      1898      1899      1900      1901
      1900      1902      1901      1902      1903      1904      1903      1905
      1904      1905      1906      1907      1906      1908      1907      1908
      1909      1910      1909      1911      1910      1911      1912      1913
      1912      1914      1913      1914      1915      1916      1915      1917
      1916      1917      1918      1919      1918      1920      1919      1920
      1921      1922      1921      1923      1922      1923      1924      1925
      1924      1926      1925      1926      1927      1928      1927      1929
      1928      1929      1930      1931      1930      1932      1931      1932
      1933      1934      1933      1935      1934      1935      1936      1937
      1936      1938      1937      1938      1939      1940      1939      1941
      1940      1941      1942      1943      1942      1944      1943      1944
      1945      1946      1945      1947      1946      1947      1948      1949
      1948      1950      1949      1950      1951      1952      1951      1953
      1952      1953      1954      1955      1954      1956      1955      1956
      1957      1958      1957      1959      1958      1959      1960      1961
      1960      1962      1961      1962      1963      1964      1963      1965
      1964      1965      1966      1967      1966      1968      1967      1968
      1969      1970      1969      1971      1970      1971      1972      1973
      1972      1974      1973      1974      1975      1976      1975      1977
      1976      1977      1978      1979      1978      1980      1979      1980
      1981      1982      1981      1983      1982      1983      1984      1985
      1984      1986      1985      1986      1987      1988      1987      1989
      1988      1989      1990      1991      1990      1992      1991      1992
      1993      1994      1993      1995      1994      1995      1996      1997
      1996      1998      1997      1998      1999      2000      1999      2001
      2000      2001      2002      2003      2002      2004      2003      2004
      2005      2006      2005      2007      2006      2007      2008      2009
      2008      2010      2009      2010      2011      2012      2011      2013
      2012      2013      2014      2015      2014      2016      2015      2016
      2017      2018      2017      2019      2018      2019      2020      2021
      2020      2022      2021      2022      2023      2024      2023      2025
      2024      2025      2026      2027      2026      2028      2027      2028
      2029      2030      2029      2031      2030      2031      2032      2033
      2032      2034      2033      2034      2035      2036      2035      2037
      2036      2037      2038      2039      2038      2040      2039      2040
      2041      2042      2041      2043      2042      2043      2044      2045
      2044      2046      2045      2046      2047      2048      2047      2049
      2048      2049      2050      2051      2050      2052      2051      2052
      2053      2054      2053      2055      2054      2055      2056      2057
      2056      2058      2057      2058      2059      2060      2059      2061
      2060      2061      2062      2063      2062      2064      2063      2064
      2065      2066      2065      2067      2066      2067      2068      2069
      2068      2070      2069      2070      2071      2072      2071      2073
      2072      2073      2074      2075      2074      2076      2075      2076
      2077      2078      2077      2079      2078      2079      2080      2081
      2080      2082      2081      2082      2083      2084      2083      2085
      2084      2085      2086      2087      2086      2088      2087      2088
      2089      2090      2089      2091      2090      2091      2092      2093
      2092      2094      2093      2094      2095      2096      2095      2097
      2096      2097      2098      2099      2098      2100      2099      2100
      2101      2102      2101      2103      2102      2103      2104      2105
      2104      2106      2105      2106      2107      2108      2107      2109
      2108      2109      2110      2111      2110      2112      2111      2112
      2113      2114      2113      2115      2114      2115      2116      2117
      2116      2118      2117      2118      2119      2120      2119      2121
      2120      2121      2122      2123      2122      2124      2123      2124
      2125      2126      2125      2127      2126      2127      2128      2129
      2128      2130      2129      2130      2131      2132      2131      2133
      2132      2133      2134      2135      2134      2136      2135      2136
      2137      2138      2137      2139      2138      2139      2140      2141
      2140      2142      2141      2142      2143      2144      2143      2145
      2144      2145      2146      2147      2146      2148      2147      2148
      2149      2150      2149      2151      2150      2151      2152      2153
      2152      2154      2153      2154      2155      2156      2155      2157
      2156      2157      2158      2159      2158      2160      2159      2160
      2161      2162      2161      2163      2162      2163      2164      2165
      2164      2166      2165      2166      2167      2168      2167      2169
      2168      2169      2170      2171      2170      2172      2171      2172
      2173      2174      2173      2175      2174      2175      2176      2177
      2176      2178      2177      2178      2179      2180      2179      2181
      2180      2181      2182      2183      2182      2184      2183      2184
      2185      2186      2185      2187      2186      2187      2188      2189
      2188      2190      2189      2190      2191      2192      2191      2193
      2192      2193      2194      2195      2194      2196      2195      2196
      2197      2198      2197      2199      2198      2199      2200      2201
      2200      2202      2201      2202      2203      2204      2203      2205
      2204      2205      2206      2207      2206      2208      2207      2208
      2209      2210      2209      2211      2210      2211      2212      2213
      2212      2214      2213      2214      2215      2216      2215      2217
      2216      2217      2218      2219      2218      2220      2219      2220
      2221      2222      2221      2223      2222      2223      2224      2225
      2224      2226      2225      2226      2227      2228      2227      2229
      2228      2229      2230      2231      2230      2232      2231      2232
      2233      2234      2233      2235      2234      2235      2236      2237
      2236      2238      2237      2238      2239      2240      2239      2241
      2240      2241      2242      2243      2242      2244      2243      2244
      2245      2246      2245      2247      2246      2247      2248      2249
      2248      2250      2249      2250      2251      2252      2251      2253
      2252      2253      2254      2255      2254      2256      2255      2256
      2257      2258      2257      2259      2258      2259      2260      2261
      2260      2262      2261      2262      2263      2264      2263      2265
      2264      2265      2266      2267      2266      2268      2267      2268
      2269      2270      2269      2271      2270      2271      2272      2273
      2272      2274      2273      2274      2275      2276      2275      2277
      2276      2277      2278      2279      2278      2280      2279      2280
      2281      2282      2281      2283      2282      2283      2284      2285
      2284      2286      2285      2286      2287      2288      2287      2289
      2288      2289      2290      2291      2290      2292      2291      2292
      2293      2294      2293      2295      2294      2295      2296      2297
      2296      2298      2297      2298      2299      2300      2299      2301
      2300      2301      2302      2303      2302      2304      2303      2304
      2305      2306      2305      2307      2306      2307      2308      2309
      2308      2310      2309      2310      2311      2312      2311      2313
      2312      2313      2314      2315      2314      2316      2315      2316
      2317      2318      2317      2319      2318      2319      2320      2321
      2320      2322      2321      2322      2323      2324      2323      2325
      2324      2325      2326      2327      2326      2328      2327      2328
      2329      2330      2329      2331      2330      2331      2332      2333
      2332      2334      2333      2334      2335      2336      2335      2337
      2336      2337      2338      2339      2338      2340      2339      2340
      2341      2342      2341      2343      2342      2343      2344      2345
      2344      2346      2345      2346      2347      2348      2347      2349
      2348      2349      2350      2351      2350      2352      2351      2352
      2353      2354      2353      2355      2354      2355      2356      2357
      2356      2358      2357      2358      2359      2360      2359      2361
      2360      2361      2362      2363      2362      2364      2363      2364
      2365      2366      2365      2367      2366      2367      2368      2369
      2368      2370      2369      2370      2371      2372      2371      2373
      2372      2373      2374      2375      2374      2376      2375      2376
      2377      2378      2377      2379      2378      2379      2380      2381
      2380      2382      2381      2382      2383      2384      2383      2385
      2384      2385      2386      2387      2386      2388      2387      2388
      2389      2390      2389      2391      2390      2391      2392      2393
      2392      2394      2393      2394      2395      2396      2395      2397
      2396      2397      2398      2399      2398      2400      2399      2400
      2401      2402      2401      2403      2402      2403      2404      2405
      2404      2406      2405      2406      2407      2408      2407      2409
      2408      2409      2410      2411      2410      2412      2411      2412
      2413      2414      2413      2415      2414      2415      2416      2417
      2416      2418      2417      2418      2419      2420      2419      2421
      2420      2421      2422      2423      2422      2424      2423      2424
      2425      2426      2425      2427      2426      2427      2428      2429
      2428      2430      2429      2430      2431      2432      2431      2433
      2432      2433      2434      2435      2434      2436      2435      2436
      2437      2438      2437      2439      2438      2439      2440      2441
      2440      2442      2441      2442      2443      2444      2443      2445
      2444      2445      2446      2447      2446      2448      2447      2448
      2449      2450      2449      2451      2450      2451      2452      2453
      2452      2454      2453      2454      2455      2456      2455      2457
      2456      2457      2458      2459      2458      2460      2459      2460
      2461      2462      2461      2463      2462      2463      2464      2465
      2464      2466      2465      2466      2467      2468      2467      2469
      2468      2469      2470      2471      2470      2472      2471      2472
      2473      2474      2473      2475      2474      2475      2476      2477
      2476      2478      2477      2478      2479      2480      2479      2481
      2480      2481      2482      2483      2482      2484      2483      2484
      2485      2486      2485      2487      2486      2487      2488      2489
      2488      2490      2489      2490      2491      2492      2491      2493
      2492      2493      2494      2495      2494      2496      2495      2496
      2497      2498      2497      2499      2498      2499      2500      2501
      2500      2502      2501      2502      2503      2504      2503      2505
      2504      2505      2506      2507      2506      2508      2507      2508
      2509      2510      2509      2511      2510      2511      2512      2513
      2512      2514      2513      2514      2515      2516      2515      2517
      2516      2517      2518      2519      2518      2520      2519      2520
      2521      2522      2521      2523      2522      2523      2524      2525
      2524      2526      2525      2526      2527      2528      2527      2529
      2528      2529      2530      2531      2530      2532      2531      2532
      2533      2534      2533      2535      2534      2535      2536      2537
      2536      2538      2537      2538      2539      2540      2539      2541
      2540      2541      2542      2543      2542      2544      2543      2544
      2545      2546      2545      2547      2546      2547      2548      2549
      2548      2550      2549      2550      2551      2552      2551      2553
      2552      2553      2554      2555      2554      2556      2555      2556
      2557      2558      2557      2559      2558      2559      2560      2561
      2560      2562      2561      2562      2563      2564      2563      2565
      2564      2565      2566      2567      2566      2568      2567      2568
      2569      2570      2569      2571      2570      2571      2572      2573
      2572      2574      2573      2574      2575      2576      2575      2577
      2576      2577      2578      2579      2578      2580      2579      2580
      2581      2582      2581      2583      2582      2583      2584      2585
      2584      2586      2585      2586      2587      2588      2587      2589
      2588      2589      2590      2591      2590      2592      2591      2592
      2593      2594      2593      2595      2594      2595      2596      2597
      2596      2598      2597      2598      2599      2600      2599      2601
      2600      2601      2602      2603      2602      2604      2603      2604
      2605      2606      2605      2607      2606      2607      2608      2609
      2608      2610      2609      2610      2611      2612      2611      2613
      2612      2613      2614      2615      2614      2616      2615      2616
      2617      2618      2617      2619      2618      2619      2620      2621
      2620      2622      2621      2622      2623      2624      2623      2625
      2624      2625      2626      2627      2626      2628      2627      2628
      2629      2630      2629      2631      2630      2631      2632      2633
      2632      2634      2633      2634      2635      2636      2635      2637
      2636      2637      2638      2639      2638      2640      2639      2640
      2641      2642      2641      2643      2642      2643      2644      2645
      2644      2646      2645      2646      2647      2648      2647      2649
      2648      2649      2650      2651      2650      2652      2651      2652
      2653      2654      2653      2655      2654      2655      2656      2657
      2656      2658      2657      2658      2659      2660      2659      2661
      2660      2661      2662      2663      2662      2664      2663      2664
      2665      2666      2665      2667      2666      2667      2668      2669
      2668      2670      2669      2670      2671      2672      2671      2673
      2672      2673      2674      2675      2674      2676      2675      2676
      2677      2678      2677      2679      2678      2679      2680      2681
      2680      2682      2681      2682      2683      2684      2683      2685
      2684      2685      2686      2687      2686      2688      2687      2688
      2689      2690      2689      2691      2690      2691      2692      2693
      2692      2694      2693      2694      2695      2696      2695      2697
      2696      2697      2698      2699      2698      2700      2699      2700
      2701      2702      2701      2703      2702      2703      2704      2705
      2704      2706      2705      2706      2707      2708      2707      2709
      2708      2709      2710      2711      2710      2712      2711      2712
      2713      2714      2713      2715      2714      2715      2716      2717
      2716      2718      2717      2718      2719      2720      2719      2721
      2720      2721      2722      2723      2722      2724      2723      2724
      2725      2726      2725      2727      2726      2727      2728      2729
      2728      2730      2729      2730      2731      2732      2731      2733
      2732      2733      2734      2735      2734      2736      2735      2736
      2737      2738      2737      2739      2738      2739      2740      2741
      2740      2742      2741      2742      2743      2744      2743      2745
      2744      2745      2746      2747      2746      2748      2747      2748
      2749      2750      2749      2751      2750      2751      2752      2753
      2752      2754      2753      2754      2755      2756      2755      2757
      2756      2757      2758      2759      2758      2760      2759      2760
      2761      2762      2761      2763      2762      2763      2764      2765
      2764      2766      2765      2766      2767      2768      2767      2769
      2768      2769      2770      2771      2770      2772      2771      2772
      2773      2774      2773      2775      2774      2775      2776      2777
      2776      2778      2777      2778      2779      2780      2779      2781
      2780      2781      2782      2783      2782      2784      2783      2784
      2785      2786      2785      2787      2786      2787      2788      2789
      2788      2790      2789      2790      2791      2792      2791      2793
      2792      2793      2794      2795      2794      2796      2795      2796
      2797      2798      2797      2799      2798      2799      2800      2801
      2800      2802      2801      2802      2803      2804      2803      2805
      2804      2805      2806      2807      2806      2808      2807      2808
      2809      2810      2809      2811      2810      2811      2812      2813
      2812      2814      2813      2814      2815      2816      2815      2817
      2816      2817      2818      2819      2818      2820      2819      2820
      2821      2822      2821      2823      2822      2823      2824      2825
      2824      2826      2825      2826      2827      2828      2827      2829
      2828      2829      2830      2831      2830      2832      2831      2832
      2833      2834      2833      2835      2834      2835      2836      2837
      2836      2838      2837      2838      2839      2840      2839      2841
      2840      2841      2842      2843      2842      2844      2843      2844
      2845      2846      2845      2847      2846      2847      2848      2849
      2848      2850      2849      2850      2851      2852      2851      2853
      2852      2853      2854      2855      2854      2856      2855      2856
      2857      2858      2857      2859      2858      2859      2860      2861
      2860      2862      2861      2862      2863      2864      2863      2865
      2864      2865      2866      2867      2866      2868      2867      2868
      2869      2870      2869      2871      2870      2871      2872      2873
      2872      2874      2873      2874      2875      2876      2875      2877
      2876      2877      2878      2879      2878      2880      2879      2880
      2881      2882      2881      2883      2882      2883      2884      2885
      2884      2886      2885      2886      2887      2888      2887      2889
      2888      2889      2890      2891      2890      2892      2891      2892
      2893      2894      2893      2895      2894      2895      2896      2897
      2896      2898      2897      2898      2899      2900      2899      2901
      2900      2901      2902      2903      2902      2904      2903      2904
      2905      2906      2905      2907      2906      2907      2908      2909
      2908      2910      2909      2910      2911      2912      2911      2913
      2912      2913      2914      2915      2914      2916      2915      2916
      2917      2918      2917      2919      2918      2919      2920      2921
      2920      2922      2921      2922      2923      2924      2923      2925
      2924      2925      2926      2927      2926      2928      2927      2928
      2929      2930      2929      2931      2930      2931      2932      2933
      2932      2934      2933      2934      2935      2936      2935      2937
      2936      2937      2938      2939      2938      2940      2939      2940
      2941      2942      2941      2943      2942      2943      2944      2945
      2944      2946      2945      2946      2947      2948      2947      2949
      2948      2949      2950      2951      2950      2952      2951      2952
      2953      2954      2953      2955      2954      2955      2956      2957
      2956      2958      2957      2958      2959      2960      2959      2961
      2960      2961      2962      2963      2962      2964      2963      2964
      2965      2966      2965      2967      2966      2967      2968      2969
      2968      2970      2969      2970      2971      2972      2971      2973
      2972      2973      2974      2975      2974      2976      2975      2976
      2977      2978      2977      2979      2978      2979      2980      2981
      2980      2982      2981      2982      2983      2984      2983      2985
      2984      2985      2986      2987      2986      2988      2987      2988
      2989      2990      2989      2991      2990      2991      2992      2993
      2992      2994      2993      2994      2995      2996      2995      2997
      2996      2997      2998      2999      2998      3000      2999      3000
      3001      3002      3001      3003      3002      3003      3004      3005
      3004      3006      3005      3006      3007      3008      3007      3009
      3008      3009      3010      3011      3010      3012      3011      3012
      3013      3014      3013      3015      3014      3015      3016      3017
      3016      3018      3017      3018      3019      3020      3019      3021
      3020      3021      3022      3023      3022      3024      3023      3024
      3025      3026      3025      3027      3026      3027      3028      3029
      3028      3030      3029      3030      3031      3032      3031      3033
      3032      3033      3034      3035      3034      3036      3035      3036
      3037      3038      3037      3039      3038      3039      3040      3041
      3040      3042      3041      3042      3043      3044      3043      3045
      3044      3045      3046      3047      3046      3048      3047      3048
      3049      3050      3049      3051      3050      3051      3052      3053
      3052      3054      3053      3054      3055      3056      3055      3057
      3056      3057      3058      3059      3058      3060      3059      3060
      3061      3062      3061      3063      3062      3063      3064      3065
      3064      3066      3065      3066      3067      3068      3067      3069
      3068      3069      3070      3071      3070      3072      3071      3072
      3073      3074      3073      3075      3074      3075      3076      3077
      3076      3078      3077      3078      3079      3080      3079      3081
      3080      3081      3082      3083      3082      3084      3083      3084
      3085      3086      3085      3087      3086      3087      3088      3089
      3088      3090      3089      3090      3091      3092      3091      3093
      3092      3093      3094      3095      3094      3096      3095      3096
      3097      3098      3097      3099      3098      3099      3100      3101
      3100      3102      3101      3102      3103      3104      3103      3105
      3104      3105      3106      3107      3106      3108      3107      3108
      3109      3110      3109      3111      3110      3111      3112      3113
      3112      3114      3113      3114      3115      3116      3115      3117
      3116      3117      3118      3119      3118      3120      3119      3120
      3121      3122      3121      3123      3122      3123      3124      3125
      3124      3126      3125      3126      3127      3128      3127      3129
      3128      3129      3130      3131      3130      3132      3131      3132
      3133      3134      3133      3135      3134      3135      3136      3137
      3136      3138      3137      3138      3139      3140      3139      3141
      3140      3141      3142      3143      3142      3144      3143      3144
      3145      3146      3145      3147      3146      3147      3148      3149
      3148      3150      3149      3150      3151      3152      3151      3153
      3152      3153      3154      3155      3154      3156      3155      3156
      3157      3158      3157      3159      3158      3159      3160      3161
      3160      3162      3161      3162      3163      3164      3163      3165
      3164      3165      3166      3167      3166      3168      3167      3168
      3169      3170      3169      3171      3170      3171      3172      3173
      3172      3174      3173      3174      3175      3176      3175      3177
      3176      3177      3178      3179      3178      3180      3179      3180
      3181      3182      3181      3183      3182      3183      3184      3185
      3184      3186      3185      3186      3187      3188      3187      3189
      3188      3189      3190      3191      3190      3192      3191      3192
      3193      3194      3193      3195      3194      3195      3196      3197
      3196      3198      3197      3198      3199      3200      3199      3201
      3200      3201      3202      3203      3202      3204      3203      3204
      3205      3206      3205      3207      3206      3207      3208      3209
      3208      3210      3209      3210      3211      3212      3211      3213
      3212      3213      3214      3215      3214      3216      3215      3216
      3217      3218      3217      3219      3218      3219      3220      3221
      3220      3222      3221      3222      3223      3224      3223      3225
      3224      3225      3226      3227      3226      3228      3227      3228
      3229      3230      3229      3231      3230      3231      3232      3233
      3232      3234      3233      3234      3235      3236      3235      3237
      3236      3237      3238      3239      3238      3240      3239      3240
      3241      3242      3241      3243      3242      3243      3244      3245
      3244      3246      3245      3246      3247      3248      3247      3249
      3248      3249      3250      3251      3250      3252      3251      3252
      3253      3254      3253      3255      3254      3255      3256      3257
      3256      3258      3257      3258      3259      3260      3259      3261
      3260      3261      3262      3263      3262      3264      3263      3264
      3265      3266      3265      3267      3266      3267      3268      3269
      3268      3270      3269      3270      3271      3272      3271      3273
      3272      3273      3274      3275      3274      3276      3275      3276
      3277      3278      3277      3279      3278      3279      3280      3281
      3280      3282      3281      3282      3283      3284      3283      3285
      3284      3285      3286      3287      3286      3288      3287      3288
      3289      3290      3289      3291      3290      3291      3292      3293
      3292      3294      3293      3294      3295      3296      3295      3297
      3296      3297      3298      3299      3298      3300      3299      3300
      3301      3302      3301      3303      3302      3303      3304      3305
      3304      3306      3305      3306      3307      3308      3307      3309
      3308      3309      3310      3311      3310      3312      3311      3312
      3313      3314      3313      3315      3314      3315      3316      3317
      3316      3318      3317      3318      3319      3320      3319      3321
      3320      3321      3322      3323      3322      3324      3323      3324
      3325      3326      3325      3327      3326      3327      3328      3329
      3328      3330      3329      3330      3331      3332      3331      3333
      3332      3333      3334      3335      3334      3336      3335      3336
      3337      3338      3337      3339      3338      3339      3340      3341
      3340      3342      3341      3342      3343      3344      3343      3345
      3344      3345      3346      3347      3346      3348      3347      3348
      3349      3350      3349      3351      3350      3351      3352      3353
      3352      3354      3353      3354      3355      3356      3355      3357
      3356      3357      3358      3359      3358      3360      3359      3360
      3361      3362      3361      3363      3362      3363      3364      3365
      3364      3366      3365      3366      3367      3368      3367      3369
      3368      3369      3370      3371      3370      3372      3371      3372
      3373      3374      3373      3375      3374      3375      3376      3377
      3376      3378      3377      3378      3379      3380      3379      3381
      3380      3381      3382      3383      3382      3384      3383      3384
      3385      3386      3385      3387      3386      3387      3388      3389
      3388      3390      3389      3390      3391      3392      3391      3393
      3392      3393      3394      3395      3394      3396      3395      3396
      3397      3398      3397      3399      3398      3399      3400      3401
      3400      3402      3401      3402      3403      3404      3403      3405
      3404      3405      3406      3407      3406      3408      3407      3408
      3409      3410      3409      3411      3410      3411      3412      3413
      3412      3414      3413      3414      3415      3416      3415      3417
      3416      3417      3418      3419      3418      3420      3419      3420
      3421      3422      3421      3423      3422      3423      3424      3425
      3424      3426      3425      3426      3427      3428      3427      3429
      3428      3429      3430      3431      3430      3432      3431      3432
      3433      3434      3433      3435      3434      3435      3436      3437
      3436      3438      3437      3438      3439      3440      3439      3441
      3440      3441      3442      3443      3442      3444      3443      3444
      3445      3446      3445      3447      3446      3447      3448      3449
      3448      3450      3449      3450      3451      3452      3451      3453
      3452      3453      3454      3455      3454      3456      3455      3456
      3457      3458      3457      3459      3458      3459      3460      3461
      3460      3462      3461      3462      3463      3464      3463      3465
      3464      3465      3466      3467      3466      3468      3467      3468
      3469      3470      3469      3471      3470      3471      3472      3473
      3472      3474      3473      3474      3475      3476      3475      3477
      3476      3477      3478      3479      3478      3480      3479      3480
      3481      3482      3481      3483      3482      3483      3484      3485
      3484      3486      3485      3486      3487      3488      3487      3489
      3488      3489      3490      3491      3490      3492      3491      3492
      3493      3494      3493      3495      3494      3495      3496      3497
      3496      3498      3497      3498      3499      3500      3499      3501
      3500      3501      3502      3503      3502      3504      3503      3504
      3505      3506      3505      3507      3506      3507      3508      3509
      3508      3510      3509      3510      3511      3512      3511      3513
      3512      3513      3514      3515      3514      3516      3515      3516
      3517      3518      3517      3519      3518      3519      3520      3521
      3520      3522      3521      3522      3523      3524      3523      3525
      3524      3525      3526      3527      3526      3528      3527      3528
      3529      3530      3529      3531      3530      3531      3532      3533
      3532      3534      3533      3534      3535      3536      3535      3537
      3536      3537      3538      3539      3538      3540      3539      3540
      3541      3542      3541      3543      3542      3543      3544      3545
      3544      3546      3545      3546      3547      3548      3547      3549
      3548      3549      3550      3551      3550      3552      3551      3552
      3553      3554      3553      3555      3554      3555      3556      3557
      3556      3558      3557      3558      3559      3560      3559      3561
      3560      3561      3562      3563      3562      3564      3563      3564
      3565      3566      3565      3567      3566      3567      3568      3569
      3568      3570      3569      3570      3571      3572      3571      3573
      3572      3573      3574      3575      3574      3576      3575      3576
      3577      3578      3577      3579      3578      3579      3580      3581
      3580      3582      3581      3582      3583      3584      3583      3585
      3584      3585      3586      3587      3586      3588      3587      3588
      3589      3590      3589      3591      3590      3591      3592      3593
      3592      3594      3593      3594      3595      3596      3595      3597
      3596      3597      3598      3599      3598      3600      3599      3600
      3601      3602      3601      3603      3602      3603      3604      3605
      3604      3606      3605      3606      3607      3608      3607      3609
      3608      3609      3610      3611      3610      3612      3611      3612
      3613      3614      3613      3615      3614      3615      3616      3617
      3616      3618      3617      3618      3619      3620      3619      3621
      3620      3621      3622      3623      3622      3624      3623      3624
      3625      3626      3625      3627      3626      3627      3628      3629
      3628      3630      3629      3630      3631      3632      3631      3633
      3632      3633      3634      3635      3634      3636      3635      3636
      3637      3638      3637      3639      3638      3639      3640      3641
      3640      3642      3641      3642      3643      3644      3643      3645
      3644      3645      3646      3647      3646      3648      3647      3648
      3649      3650      3649      3651      3650      3651      3652      3653
      3652      3654      3653      3654      3655      3656      3655      3657
      3656      3657      3658      3659      3658      3660      3659      3660
      3661      3662      3661      3663      3662      3663      3664      3665
      3664      3666      3665      3666      3667      3668      3667      3669
      3668      3669      3670      3671      3670      3672      3671      3672
      3673      3674      3673      3675      3674      3675      3676      3677
      3676      3678      3677      3678      3679      3680      3679      3681
      3680      3681      3682      3683      3682      3684      3683      3684
      3685      3686      3685      3687      3686      3687      3688      3689
      3688      3690      3689      3690      3691      3692      3691      3693
      3692      3693      3694      3695      3694      3696      3695      3696
      3697      3698      3697      3699      3698      3699      3700      3701
      3700      3702      3701      3702      3703      3704      3703      3705
      3704      3705      3706      3707      3706      3708      3707      3708
      3709      3710      3709      3711      3710      3711      3712      3713
      3712      3714      3713      3714      3715      3716      3715      3717
      3716      3717      3718      3719      3718      3720      3719      3720
      3721      3722      3721      3723      3722      3723      3724      3725
      3724      3726      3725      3726      3727      3728      3727      3729
      3728      3729      3730      3731      3730      3732      3731      3732
      3733      3734      3733      3735      3734      3735      3736      3737
      3736      3738      3737      3738      3739      3740      3739      3741
      3740      3741      3742      3743      3742      3744      3743      3744
      3745      3746      3745      3747      3746      3747      3748      3749
      3748      3750      3749      3750      3751      3752      3751      3753
      3752      3753      3754      3755      3754      3756      3755      3756
      3757      3758      3757      3759      3758      3759      3760      3761
      3760      3762      3761      3762      3763      3764      3763      3765
      3764      3765      3766      3767      3766      3768      3767      3768
      3769      3770      3769      3771      3770      3771      3772      3773
      3772      3774      3773      3774      3775      3776      3775      3777
      3776      3777      3778      3779      3778      3780      3779      3780
      3781      3782      3781      3783      3782      3783      3784      3785
      3784      3786      3785      3786      3787      3788      3787      3789
      3788      3789      3790      3791      3790      3792      3791      3792
      3793      3794      3793      3795      3794      3795      3796      3797
      3796      3798      3797      3798      3799      3800      3799      3801
      3800      3801      3802      3803      3802      3804      3803      3804
      3805      3806      3805      3807      3806      3807      3808      3809
      3808      3810      3809      3810      3811      3812      3811      3813
      3812      3813      3814      3815      3814      3816      3815      3816
      3817      3818      3817      3819      3818      3819      3820      3821
      3820      3822      3821      3822      3823      3824      3823      3825
      3824      3825      3826      3827      3826      3828      3827      3828
      3829      3830      3829      3831      3830      3831      3832      3833
      3832      3834      3833      3834      3835      3836      3835      3837
      3836      3837      3838      3839      3838      3840      3839      3840
      3841      3842      3841      3843      3842      3843      3844      3845
      3844      3846      3845      3846      3847      3848      3847      3849
      3848      3849      3850      3851      3850      3852      3851      3852
      3853      3854      3853      3855      3854      3855      3856      3857
      3856      3858      3857      3858      3859      3860      3859      3861
      3860      3861      3862      3863      3862      3864      3863      3864
      3865      3866      3865      3867      3866      3867      3868      3869
      3868      3870      3869      3870      3871      3872      3871      3873
      3872      3873      3874      3875      3874      3876      3875      3876
      3877      3878      3877      3879      3878      3879      3880      3881
      3880      3882      3881      3882      3883      3884      3883      3885
      3884      3885      3886      3887      3886      3888      3887      3888
      3889      3890      3889      3891      3890      3891      3892      3893
      3892      3894      3893      3894      3895      3896      3895      3897
      3896      3897      3898      3899      3898      3900      3899      3900
      3901      3902      3901      3903      3902      3903      3904      3905
      3904      3906      3905      3906      3907      3908      3907      3909
      3908      3909      3910      3911      3910      3912      3911      3912
      3913      3914      3913      3915      3914      3915      3916      3917
      3916      3918      3917      3918      3919      3920      3919      3921
      3920      3921      3922      3923      3922      3924      3923      3924
      3925      3926      3925      3927      3926      3927      3928      3929
      3928      3930      3929      3930      3931      3932      3931      3933
      3932      3933      3934      3935      3934      3936      3935      3936
      3937      3938      3937      3939      3938      3939      3940      3941
      3940      3942      3941      3942      3943      3944      3943      3945
      3944      3945      3946      3947      3946      3948      3947      3948
      3949      3950      3949      3951      3950      3951      3952      3953
      3952      3954      3953      3954      3955      3956      3955      3957
      3956      3957      3958      3959      3958      3960      3959      3960
      3961      3962      3961      3963      3962      3963      3964      3965
      3964      3966      3965      3966      3967      3968      3967      3969
      3968      3969      3970      3971      3970      3972      3971      3972
      3973      3974      3973      3975      3974      3975      3976      3977
      3976      3978      3977      3978      3979      3980      3979      3981
      3980      3981      3982      3983      3982      3984      3983      3984
      3985      3986      3985      3987      3986      3987      3988      3989
      3988      3990      3989      3990      3991      3992      3991      3993
      3992      3993      3994      3995      3994      3996      3995      3996
      3997      3998      3997      3999      3998      3999      4000      4001
      4000      4002      4001      4002      4003      4004      4003      4005
      4004      4005      4006      4007      4006      4008      4007      4008
      4009      4010      4009      4011      4010      4011      4012      4013
      4012      4014      4013      4014      4015      4016      4015      4017
      4016      4017      4018      4019      4018      4020      4019      4020
      4021      4022      4021      4023      4022      4023      4024      4025
      4024      4026      4025      4026      4027      4028      4027      4029
      4028      4029      4030      4031      4030      4032      4031      4032
      4033      4034      4033      4035      4034      4035      4036      4037
      4036      4038      4037      4038      4039      4040      4039      4041
      4040      4041      4042      4043      4042      4044      4043      4044
      4045      4046      4045      4047      4046      4047      4048      4049
      4048      4050      4049      4050      4051      4052      4051      4053
      4052      4053      4054      4055      4054      4056      4055      4056
      4057      4058      4057      4059      4058      4059      4060      4061
      4060      4062      4061      4062      4063      4064      4063      4065
      4064      4065      4066      4067      4066      4068      4067      4068
      4069      4070      4069      4071      4070      4071      4072      4073
      4072      4074      4073      4074      4075      4076      4075      4077
      4076      4077      4078      4079      4078      4080      4079      4080
      4081      4082      4081      4083      4082      4083      4084      4085
      4084      4086      4085      4086      4087      4088      4087      4089
      4088      4089      4090      4091      4090      4092      4091      4092
      4093      4094      4093      4095      4094      4095      4096      4097
      4096      4098      4097      4098      4099      4100      4099      4101
      4100      4101      4102      4103      4102      4104      4103      4104
      4105      4106      4105      4107      4106      4107      4108      4109
      4108      4110      4109      4110      4111      4112      4111      4113
      4112      4113      4114      4115      4114      4116      4115      4116
      4117      4118      4117      4119      4118      4119      4120      4121
      4120      4122      4121      4122      4123      4124      4123      4125
      4124      4125      4126      4127      4126      4128      4127      4128
      4129      4130      4129      4131      4130      4131      4132      4133
      4132      4134      4133      4134      4135      4136      4135      4137
      4136      4137      4138      4139      4138      4140      4139      4140
      4141      4142      4141      4143      4142      4143      4144      4145
      4144      4146      4145      4146      4147      4148      4147      4149
      4148      4149      4150      4151      4150      4152      4151      4152
      4153      4154      4153      4155      4154      4155      4156      4157
      4156      4158      4157      4158      4159      4160      4159      4161
      4160      4161      4162      4163      4162      4164      4163      4164
      4165      4166      4165      4167      4166      4167      4168      4169
      4168      4170      4169      4170      4171      4172      4171      4173
      4172      4173      4174      4175      4174      4176      4175      4176
      4177      4178      4177      4179      4178      4179      4180      4181
      4180      4182      4181      4182      4183      4184      4183      4185
      4184      4185      4186      4187      4186      4188      4187      4188
      4189      4190      4189      4191      4190      4191      4192      4193
      4192      4194      4193      4194      4195      4196      4195      4197
      4196      4197      4198      4199      4198      4200      4199      4200
      4201      4202      4201      4203      4202      4203      4204      4205
      4204      4206      4205      4206      4207      4208      4207      4209
      4208      4209      4210      4211      4210      4212      4211      4212
      4213      4214      4213      4215      4214      4215      4216      4217
      4216      4218      4217      4218      4219      4220      4219      4221
      4220      4221      4222      4223      4222      4224      4223      4224
      4225      4226      4225      4227      4226      4227      4228      4229
      4228      4230      4229      4230      4231      4232      4231      4233
      4232      4233      4234      4235      4234      4236      4235      4236
      4237      4238      4237      4239      4238      4239      4240      4241
      4240      4242      4241      4242      4243      4244      4243      4245
      4244      4245      4246      4247      4246      4248      4247      4248
      4249      4250      4249      4251      4250      4251      4252      4253
      4252      4254      4253      4254      4255      4256      4255      4257
      4256      4257      4258      4259      4258      4260      4259      4260
      4261      4262      4261      4263      4262      4263      4264      4265
      4264      4266      4265      4266      4267      4268      4267      4269
      4268      4269      4270      4271      4270      4272      4271      4272
      4273      4274      4273      4275      4274      4275      4276      4277
      4276      4278      4277      4278      4279      4280      4279      4281
      4280      4281      4282      4283      4282      4284      4283      4284
      4285      4286      4285      4287      4286      4287      4288      4289
      4288      4290      4289      4290      4291      4292      4291      4293
      4292      4293      4294      4295      4294      4296      4295      4296
      4297      4298      4297      4299      4298      4299      4300      4301
      4300      4302      4301      4302      4303      4304      4303      4305
      4304      4305      4306      4307      4306      4308      4307      4308
      4309      4310      4309      4311      4310      4311      4312      4313
      4312      4314      4313      4314      4315      4316      4315      4317
      4316      4317      4318      4319      4318      4320      4319      4320
      4321      4322      4321      4323      4322      4323      4324      4325
      4324      4326      4325      4326      4327      4328      4327      4329
      4328      4329      4330      4331      4330      4332      4331      4332
      4333      4334      4333      4335      4334      4335      4336      4337
      4336      4338      4337      4338      4339      4340      4339      4341
      4340      4341      4342      4343      4342      4344      4343      4344
      4345      4346      4345      4347      4346      4347      4348      4349
      4348      4350      4349      4350      4351      4352      4351      4353
      4352      4353      4354      4355      4354      4356      4355      4356
      4357      4358      4357      4359      4358      4359      4360      4361
      4360      4362      4361      4362      4363      4364      4363      4365
      4364      4365      4366      4367      4366      4368      4367      4368
      4369      4370      4369      4371      4370      4371      4372      4373
      4372      4374      4373      4374      4375      4376      4375      4377
      4376      4377      4378      4379      4378      4380      4379      4380
      4381      4382      4381      4383      4382      4383      4384      4385
      4384      4386      4385      4386      4387      4388      4387      4389
      4388      4389      4390      4391      4390      4392      4391      4392
      4393      4394      4393      4395      4394      4395      4396      4397
      4396      4398      4397      4398      4399      4400      4399      4401
      4400      4401      4402      4403      4402      4404      4403      4404
      4405      4406      4405      4407      4406      4407      4408      4409
      4408      4410      4409      4410      4411      4412      4411      4413
      4412      4413      4414      4415      4414      4416      4415      4416
      4417      4418      4417      4419      4418      4419      4420      4421
      4420      4422      4421      4422      4423      4424      4423      4425
      4424      4425      4426      4427      4426      4428      4427      4428
      4429      4430      4429      4431      4430      4431      4432      4433
      4432      4434      4433      4434      4435      4436      4435      4437
      4436      4437      4438      4439      4438      4440      4439      4440
      4441      4442      4441      4443      4442      4443      4444      4445
      4444      4446      4445      4446      4447      4448      4447      4449
      4448      4449      4450      4451      4450      4452      4451      4452
      4453      4454      4453      4455      4454      4455      4456      4457
      4456      4458      4457      4458      4459      4460      4459      4461
      4460      4461      4462      4463      4462      4464      4463      4464
      4465      4466      4465      4467      4466      4467      4468      4469
      4468      4470      4469      4470      4471      4472      4471      4473
      4472      4473      4474      4475      4474      4476      4475      4476
      4477      4478      4477      4479      4478      4479      4480      4481
      4480      4482      4481      4482      4483      4484      4483      4485
      4484      4485      4486      4487      4486      4488      4487      4488
      4489      4490      4489      4491      4490      4491      4492      4493
      4492      4494      4493      4494      4495      4496      4495      4497
      4496      4497      4498      4499      4498      4500      4499      4500
      4501      4502      4501      4503      4502      4503      4504      4505
      4504      4506      4505      4506      4507      4508      4507      4509
      4508      4509      4510      4511      4510      4512      4511      4512
      4513      4514      4513      4515      4514      4515      4516      4517
      4516      4518      4517      4518      4519      4520      4519      4521
      4520      4521      4522      4523      4522      4524      4523      4524
      4525      4526      4525      4527      4526      4527      4528      4529
      4528      4530      4529      4530      4531      4532      4531      4533
      4532      4533      4534      4535      4534      4536      4535      4536
      4537      4538      4537      4539      4538      4539      4540      4541
      4540      4542      4541      4542      4543      4544      4543      4545
      4544      4545      4546      4547      4546      4548      4547      4548
      4549      4550      4549      4551      4550      4551      4552      4553
      4552      4554      4553      4554      4555      4556      4555      4557
      4556      4557      4558      4559      4558      4560      4559      4560
      4561      4562      4561      4563      4562      4563      4564      4565
      4564      4566      4565      4566      4567      4568      4567      4569
      4568      4569      4570      4571      4570      4572      4571      4572
      4573      4574      4573      4575      4574      4575      4576      4577
      4576      4578      4577      4578      4579      4580      4579      4581
      4580      4581      4582      4583      4582      4584      4583      4584
      4585      4586      4585      4587      4586      4587      4588      4589
      4588      4590      4589      4590      4591      4592      4591      4593
      4592      4593      4594      4595      4594      4596      4595      4596
      4597      4598      4597      4599      4598      4599      4600      4601
      4600      4602      4601      4602      4603      4604      4603      4605
      4604      4605      4606      4607      4606      4608      4607      4608
      4609      4610      4609      4611      4610      4611      4612      4613
      4612      4614      4613      4614      4615      4616      4615      4617
      4616      4617      4618      4619      4618      4620      4619      4620
      4621      4622      4621      4623      4622      4623      4624      4625
      4624      4626      4625      4626      4627      4628      4627      4629
      4628      4629      4630      4631      4630      4632      4631      4632
      4633      4634      4633      4635      4634      4635      4636      4637
      4636      4638      4637      4638      4639      4640      4639      4641
      4640      4641      4642      4643      4642      4644      4643      4644
      4645      4646      4645      4647      4646      4647      4648      4649
      4648      4650      4649      4650      4651      4652      4651      4653
      4652      4653      4654      4655      4654      4656      4655      4656
      4657      4658      4657      4659      4658      4659      4660      4661
      4660      4662      4661      4662      4663      4664      4663      4665
      4664      4665      4666      4667      4666      4668      4667      4668
      4669      4670      4669      4671      4670      4671      4672      4673
      4672      4674      4673      4674      4675      4676      4675      4677
      4676      4677      4678      4679      4678      4680      4679      4680
      4681      4682      4681      4683      4682      4683      4684      4685
      4684      4686      4685      4686      4687      4688      4687      4689
      4688      4689      4690      4691      4690      4692      4691      4692
      4693      4694      4693      4695      4694      4695      4696      4697
      4696      4698      4697      4698      4699      4700      4699      4701
      4700      4701      4702      4703      4702      4704      4703      4704
      4705      4706      4705      4707      4706      4707      4708      4709
      4708      4710      4709      4710      4711      4712      4711      4713
      4712      4713      4714      4715      4714      4716      4715      4716
      4717      4718      4717      4719      4718      4719      4720      4721
      4720      4722      4721      4722      4723      4724      4723      4725
      4724      4725      4726      4727      4726      4728      4727      4728
      4729      4730      4729      4731      4730      4731      4732      4733
      4732      4734      4733      4734      4735      4736      4735      4737
      4736      4737      4738      4739      4738      4740      4739      4740
      4741      4742      4741      4743      4742      4743      4744      4745
      4744      4746      4745      4746      4747      4748      4747      4749
      4748      4749      4750      4751      4750      4752      4751      4752
      4753      4754      4753      4755      4754      4755      4756      4757
      4756      4758      4757      4758      4759      4760      4759      4761
      4760      4761      4762      4763      4762      4764      4763      4764
      4765      4766      4765      4767      4766      4767      4768      4769
      4768      4770      4769      4770      4771      4772      4771      4773
      4772      4773      4774      4775      4774      4776      4775      4776
      4777      4778      4777      4779      4778      4779      4780      4781
      4780      4782      4781      4782      4783      4784      4783      4785
      4784      4785      4786      4787      4786      4788      4787      4788
      4789      4790      4789      4791      4790      4791      4792      4793
      4792      4794      4793      4794      4795      4796      4795      4797
      4796      4797      4798      4799      4798      4800      4799      4800
      4801      4802      4801      4803      4802      4803      4804      4805
      4804      4806      4805      4806      4807      4808      4807      4809
      4808      4809      4810      4811      4810      4812      4811      4812
      4813      4814      4813      4815      4814      4815      4816      4817
      4816      4818      4817      4818      4819      4820      4819      4821
      4820      4821      4822      4823      4822      4824      4823      4824
      4825      4826      4825      4827      4826      4827      4828      4829
      4828      4830      4829      4830      4831      4832      4831      4833
      4832      4833      4834      4835      4834      4836      4835      4836
      4837      4838      4837      4839      4838      4839      4840      4841
      4840      4842      4841      4842      4843      4844      4843      4845
      4844      4845      4846      4847      4846      4848      4847      4848
      4849      4850      4849      4851      4850      4851      4852      4853
      4852      4854      4853      4854      4855      4856      4855      4857
      4856      4857      4858      4859      4858      4860      4859      4860
      4861      4862      4861      4863      4862      4863      4864      4865
      4864      4866      4865      4866      4867      4868      4867      4869
      4868      4869      4870      4871      4870      4872      4871      4872
      4873      4874      4873      4875      4874      4875      4876      4877
      4876      4878      4877      4878      4879      4880      4879      4881
      4880      4881      4882      4883      4882      4884      4883      4884
      4885      4886      4885      4887      4886      4887      4888      4889
      4888      4890      4889      4890      4891      4892      4891      4893
      4892      4893      4894      4895      4894      4896      4895      4896
      4897      4898      4897      4899      4898      4899      4900      4901
      4900      4902      4901      4902      4903      4904      4903      4905
      4904      4905      4906      4907      4906      4908      4907      4908
      4909      4910      4909      4911      4910      4911      4912      4913
      4912      4914      4913      4914      4915      4916      4915      4917
      4916      4917      4918      4919      4918      4920      4919      4920
      4921      4922      4921      4923      4922      4923      4924      4925
      4924      4926      4925      4926      4927      4928      4927      4929
      4928      4929      4930      4931      4930      4932      4931      4932
      4933      4934      4933      4935      4934      4935      4936      4937
      4936      4938      4937      4938      4939      4940      4939      4941
      4940      4941      4942      4943      4942      4944      4943      4944
      4945      4946      4945      4947      4946      4947      4948      4949
      4948      4950      4949      4950      4951      4952      4951      4953
      4952      4953      4954      4955      4954      4956      4955      4956
      4957      4958      4957      4959      4958      4959      4960      4961
      4960      4962      4961      4962      4963      4964      4963      4965
      4964      4965      4966      4967      4966      4968      4967      4968
      4969      4970      4969      4971      4970      4971      4972      4973
      4972      4974      4973      4974      4975      4976      4975      4977
      4976      4977      4978      4979      4978      4980      4979      4980
      4981      4982      4981      4983      4982      4983      4984      4985
      4984      4986      4985      4986      4987      4988      4987      4989
      4988      4989      4990      4991      4990      4992      4991      4992
      4993      4994      4993      4995      4994      4995      4996      4997
      4996      4998      4997      4998      4999      5000      4999      5001
      5000      5001      5002      5003      5002      5004      5003      5004
      5005      5006      5005      5007      5006      5007      5008      5009
      5008      5010      5009      5010      5011      5012      5011      5013
      5012      5013      5014      5015      5014      5016      5015      5016
      5017      5018      5017      5019      5018      5019      5020      5021
      5020      5022      5021      5022      5023      5024      5023      5025
      5024      5025      5026      5027      5026      5028      5027      5028
      5029      5030      5029      5031      5030      5031      5032      5033
      5032      5034      5033      5034      5035      5036      5035      5037
      5036      5037      5038      5039      5038      5040      5039      5040
      5041      5042      5041      5043      5042      5043      5044      5045
      5044      5046      5045      5046      5047      5048      5047      5049
      5048      5049      5050      5051      5050      5052      5051      5052
      5053      5054      5053      5055      5054      5055      5056      5057
      5056      5058      5057      5058      5059      5060      5059      5061
      5060      5061      5062      5063      5062      5064      5063      5064
      5065      5066      5065      5067      5066      5067      5068      5069
      5068      5070      5069      5070      5071      5072      5071      5073
      5072      5073      5074      5075      5074      5076      5075      5076
      5077      5078      5077      5079      5078      5079      5080      5081
      5080      5082      5081      5082      5083      5084      5083      5085
      5084      5085      5086      5087      5086      5088      5087      5088
      5089      5090      5089      5091      5090      5091      5092      5093
      5092      5094      5093      5094      5095      5096      5095      5097
      5096      5097      5098      5099      5098      5100      5099      5100
      5101      5102      5101      5103      5102      5103      5104      5105
      5104      5106      5105      5106      5107      5108      5107      5109
      5108      5109      5110      5111      5110      5112      5111      5112
      5113      5114      5113      5115      5114      5115      5116      5117
      5116      5118      5117      5118      5119      5120      5119      5121
      5120      5121      5122      5123      5122      5124      5123      5124
      5125      5126      5125      5127      5126      5127      5128      5129
      5128      5130      5129      5130      5131      5132      5131      5133
      5132      5133      5134      5135      5134      5136      5135      5136
      5137      5138      5137      5139      5138      5139      5140      5141
      5140      5142      5141      5142      5143      5144      5143      5145
      5144      5145      5146      5147      5146      5148      5147      5148
      5149      5150      5149      5151      5150      5151      5152      5153
      5152      5154      5153      5154      5155      5156      5155      5157
      5156      5157      5158      5159      5158      5160      5159      5160
      5161      5162      5161      5163      5162      5163      5164      5165
      5164      5166      5165      5166      5167      5168      5167      5169
      5168      5169      5170      5171      5170      5172      5171      5172
      5173      5174      5173      5175      5174      5175      5176      5177
      5176      5178      5177      5178

      1726 !NTHETA: angles
         2         1         3         5         4         6         8         7         9
        11        10        12        14        13        15        17        16        18
        20        19        21        23        22        24        26        25        27
        29        28        30        32        31        33        35        34        36
        38        37        39        41        40        42        44        43        45
        47        46        48        50        49        51        53        52        54
        56        55        57        59        58        60        62        61        63
        65        64        66        68        67        69        71        70        72
        74        73        75        77        76        78        80        79        81
        83        82        84        86        85        87        89        88        90
        92        91        93        95        94        96        98        97        99
       101       100       102       104       103       105       107       106       108
       110       109       111       113       112       114       116       115       117
       119       118       120       122       121       123       125       124       126
       128       127       129       131       130       132       134       133       135
       137       136       138       140       139       141       143       142       144
       146       145       147       149       148       150       152       151       153
       155       154       156       158       157       159       161       160       162
       164       163       165       167       166       168       170       169       171
       173       172       174       176       175       177       179       178       180
       182       181       183       185       184       186       188       187       189
       191       190       192       194       193       195       197       196       198
       200       199       201       203       202       204       206       205       207
       209       208       210       212       211       213       215       214       216
       218       217       219       221       220       222       224       223       225
       227       226       228       230       229       231       233       232       234
       236       235       237       239       238       240       242       241       243
       245       244       246       248       247       249       251       250       252
       254       253       255       257       256       258       260       259       261
       263       262       264       266       265       267       269       268       270
       272       271       273       275       274       276       278       277       279
       281       280       282       284       283       285       287       286       288
       290       289       291       293       292       294       296       295       297
       299       298       300       302       301       303       305       304       306
       308       307       309       311       310       312       314       313       315
       317       316       318       320       319       321       323       322       324
       326       325       327       329       328       330       332       331       333
       335       334       336       338       337       339       341       340       342
       344       343       345       347       346       348       350       349       351
       353       352       354       356       355       357       359       358       360
       362       361       363       365       364       366       368       367       369
       371       370       372       374       373       375       377       376       378
       380       379       381       383       382       384       386       385       387
       389       388       390       392       391       393       395       394       396
       398       397       399       401       400       402       404       403       405
       407       406       408       410       409       411       413       412       414
       416       415       417       419       418       420       422       421       423
       425       424       426       428       427       429       431       430       432
       434       433       435       437       436       438       440       439       441
       443       442       444       446       445       447       449       448       450
       452       451       453       455       454       456       458       457       459
       461       460       462       464       463       465       467       466       468
       470       469       471       473       472       474       476       475       477
       479       478       480       482       481       483       485       484       486
       488       487       489       491       490       492       494       493       495
       497       496       498       500       499       501       503       502       504
       506       505       507       509       508       510       512       511       513
       515       514       516       518       517       519       521       520       522
       524       523       525       527       526       528       530       529       531
       533       532       534       536       535       537       539       538       540
       542       541       543       545       544       546       548       547       549
       551       550       552       554       553       555       557       556       558
       560       559       561       563       562       564       566       565       567
       569       568       570       572       571       573       575       574       576
       578       577       579       581       580       582       584       583       585
       587       586       588       590       589       591       593       592       594
       596       595       597       599       598       600       602       601       603
       605       604       606       608       607       609       611       610       612
       614       613       615       617       616       618       620       619       621
       623       622       624       626       625       627       629       628       630
       632       631       633       635       634       636       638       637       639
       641       640       642       644       643       645       647       646       648
       650       649       651       653       652       654       656       655       657
       659       658       660       662       661       663       665       664       666
       668       667       669       671       670       672       674       673       675
       677       676       678       680       679       681       683       682       684
       686       685       687       689       688       690       692       691       693
       695       694       696       698       697       699       701       700       702
       704       703       705       707       706       708       710       709       711
       713       712       714       716       715       717       719       718       720
       722       721       723       725       724       726       728       727       729
       731       730       732       734       733       735       737       736       738
       740       739       741       743       742       744       746       745       747
       749       748       750       752       751       753       755       754       756
       758       757       759       761       760       762       764       763       765
       767       766       768       770       769       771       773       772       774
       776       775       777       779       778       780       782       781       783
       785       784       786       788       787       789       791       790       792
       794       793       795       797       796       798       800       799       801
       803       802       804       806       805       807       809       808       810
       812       811       813       815       814       816       818       817       819
       821       820       822       824       823       825       827       826       828
       830       829       831       833       832       834       836       835       837
       839       838       840       842       841       843       845       844       846
       848       847       849       851       850       852       854       853       855
       857       856       858       860       859       861       863       862       864
       866       865       867       869       868       870       872       871       873
       875       874       876       878       877       879       881       880       882
       884       883       885       887       886       888       890       889       891
       893       892       894       896       895       897       899       898       900
       902       901       903       905       904       906       908       907       909
       911       910       912       914       913       915       917       916       918
       920       919       921       923       922       924       926       925       927
       929       928       930       932       931       933       935       934       936
       938       937       939       941       940       942       944       943       945
       947       946       948       950       949       951       953       952       954
       956       955       957       959       958       960       962       961       963
       965       964       966       968       967       969       971       970       972
       974       973       975       977       976       978       980       979       981
       983       982       984       986       985       987       989       988       990
       992       991       993       995       994       996       998       997       999
      1001      1000      1002      1004      1003      1005      1007      1006      1008
      1010      1009      1011      1013      1012      1014      1016      1015      1017
      1019      1018      1020      1022      1021      1023      1025      1024      1026
      1028      1027      1029      1031      1030      1032      1034      1033      1035
      1037      1036      1038      1040      1039      1041      1043      1042      1044
      1046      1045      1047      1049      1048      1050      1052      1051      1053
      1055      1054      1056      1058      1057      1059      1061      1060      1062
      1064      1063      1065      1067      1066      1068      1070      1069      1071
      1073      1072      1074      1076      1075      1077      1079      1078      1080
      1082      1081      1083      1085      1084      1086      1088      1087      1089
      1091      1090      1092      1094      1093      1095      1097      1096      1098
      1100      1099      1101      1103      1102      1104      1106      1105      1107
      1109      1108      1110      1112      1111      1113      1115      1114      1116
      1118      1117      1119      1121      1120      1122      1124      1123      1125
      1127      1126      1128      1130      1129      1131      1133      1132      1134
      1136      1135      1137      1139      1138      1140      1142      1141      1143
      1145      1144      1146      1148      1147      1149      1151      1150      1152
      1154      1153      1155      1157      1156      1158      1160      1159      1161
      1163      1162      1164      1166      1165      1167      1169      1168      1170
      1172      1171      1173      1175      1174      1176      1178      1177      1179
      1181      1180      1182      1184      1183      1185      1187      1186      1188
      1190      1189      1191      1193      1192      1194      1196      1195      1197
      1199      1198      1200      1202      1201      1203      1205      1204      1206
      1208      1207      1209      1211      1210      1212      1214      1213      1215
      1217      1216      1218      1220      1219      1221      1223      1222      1224
      1226      1225      1227      1229      1228      1230      1232      1231      1233
      1235      1234      1236      1238      1237      1239      1241      1240      1242
      1244      1243      1245      1247      1246      1248      1250      1249      1251
      1253      1252      1254      1256      1255      1257      1259      1258      1260
      1262      1261      1263      1265      1264      1266      1268      1267      1269
      1271      1270      1272      1274      1273      1275      1277      1276      1278
      1280      1279      1281      1283      1282      1284      1286      1285      1287
      1289      1288      1290      1292      1291      1293      1295      1294      1296
      1298      1297      1299      1301      1300      1302      1304      1303      1305
      1307      1306      1308      1310      1309      1311      1313      1312      1314
      1316      1315      1317      1319      1318      1320      1322      1321      1323
      1325      1324      1326      1328      1327      1329      1331      1330      1332
      1334      1333      1335      1337      1336      1338      1340      1339      1341
      1343      1342      1344      1346      1345      1347      1349      1348      1350
      1352      1351      1353      1355      1354      1356      1358      1357      1359
      1361      1360      1362      1364      1363      1365      1367      1366      1368
      1370      1369      1371      1373      1372      1374      1376      1375      1377
      1379      1378      1380      1382      1381      1383      1385      1384      1386
      1388      1387      1389      1391      1390      1392      1394      1393      1395
      1397      1396      1398      1400      1399      1401      1403      1402      1404
      1406      1405      1407      1409      1408      1410      1412      1411      1413
      1415      1414      1416      1418      1417      1419      1421      1420      1422
      1424      1423      1425      1427      1426      1428      1430      1429      1431
      1433      1432      1434      1436      1435      1437      1439      1438      1440
      1442      1441      1443      1445      1444      1446      1448      1447      1449
      1451      1450      1452      1454      1453      1455      1457      1456      1458
      1460      1459      1461      1463      1462      1464      1466      1465      1467
      1469      1468      1470      1472      1471      1473      1475      1474      1476
      1478      1477      1479      1481      1480      1482      1484      1483      1485
      1487      1486      1488      1490      1489      1491      1493      1492      1494
      1496      1495      1497      1499      1498      1500      1502      1501      1503
      1505      1504      1506      1508      1507      1509      1511      1510      1512
      1514      1513      1515      1517      1516      1518      1520      1519      1521
      1523      1522      1524      1526      1525      1527      1529      1528      1530
      1532      1531      1533      1535      1534      1536      1538      1537      1539
      1541      1540      1542      1544      1543      1545      1547      1546      1548
      1550      1549      1551      1553      1552      1554      1556      1555      1557
      1559      1558      1560      1562      1561      1563      1565      1564      1566
      1568      1567      1569      1571      1570      1572      1574      1573      1575
      1577      1576      1578      1580      1579      1581      1583      1582      1584
      1586      1585      1587      1589      1588      1590      1592      1591      1593
      1595      1594      1596      1598      1597      1599      1601      1600      1602
      1604      1603      1605      1607      1606      1608      1610      1609      1611
      1613      1612      1614      1616      1615      1617      1619      1618      1620
      1622      1621      1623      1625      1624      1626      1628      1627      1629
      1631      1630      1632      1634      1633      1635      1637      1636      1638
      1640      1639      1641      1643      1642      1644      1646      1645      1647
      1649      1648      1650      1652      1651      1653      1655      1654      1656
      1658      1657      1659      1661      1660      1662      1664      1663      1665
      1667      1666      1668      1670      1669      1671      1673      1672      1674
      1676      1675      1677      1679      1678      1680      1682      1681      1683
      1685      1684      1686      1688      1687      1689      1691      1690      1692
      1694      1693      1695      1697      1696      1698      1700      1699      1701
      1703      1702      1704      1706      1705      1707      1709      1708      1710
      1712      1711      1713      1715      1714      1716      1718      1717      1719
      1721      1720      1722      1724      1723      1725      1727      1726      1728
      1730      1729      1731      1733      1732      1734      1736      1735      1737
      1739      1738      1740      1742      1741      1743      1745      1744      1746
      1748      1747      1749      1751      1750      1752      1754      1753      1755
      1757      1756      1758      1760      1759      1761      1763      1762      1764
      1766      1765      1767      1769      1768      1770      1772      1771      1773
      1775      1774      1776      1778      1777      1779      1781      1780      1782
      1784      1783      1785      1787      1786      1788      1790      1789      1791
      1793      1792      1794      1796      1795      1797      1799      1798      1800
      1802      1801      1803      1805      1804      1806      1808      1807      1809
      1811      1810      1812      1814      1813      1815      1817      1816      1818
      1820      1819      1821      1823      1822      1824      1826      1825      1827
      1829      1828      1830      1832      1831      1833      1835      1834      1836
      1838      1837      1839      1841      1840      1842      1844      1843      1845
      1847      1846      1848      1850      1849      1851      1853      1852      1854
      1856      1855      1857      1859      1858      1860      1862      1861      1863
      1865      1864      1866      1868      1867      1869      1871      1870      1872
      1874      1873      1875      1877      1876      1878      1880      1879      1881
      1883      1882      1884      1886      1885      1887      1889      1888      1890
      1892      1891      1893      1895      1894      1896      1898      1897      1899
      1901      1900      1902      1904      1903      1905      1907      1906      1908
      1910      1909      1911      1913      1912      1914      1916      1915      1917
      1919      1918      1920      1922      1921      1923      1925      1924      1926
      1928      1927      1929      1931      1930      1932      1934      1933      1935
      1937      1936      1938      1940      1939      1941      1943      1942      1944
      1946      1945      1947      1949      1948      1950      1952      1951      1953
      1955      1954      1956      1958      1957      1959      1961      1960      1962
      1964      1963      1965      1967      1966      1968      1970      1969      1971
      1973      1972      1974      1976      1975      1977      1979      1978      1980
      1982      1981      1983      1985      1984      1986      1988      1987      1989
      1991      1990      1992      1994      1993      1995      1997      1996      1998
      2000      1999      2001      2003      2002      2004      2006      2005      2007
      2009      2008      2010      2012      2011      2013      2015      2014      2016
      2018      2017      2019      2021      2020      2022      2024      2023      2025
      2027      2026      2028      2030      2029      2031      2033      2032      2034
      2036      2035      2037      2039      2038      2040      2042      2041      2043
      2045      2044      2046      2048      2047      2049      2051      2050      2052
      2054      2053      2055      2057      2056      2058      2060      2059      2061
      2063      2062      2064      2066      2065      2067      2069      2068      2070
      2072      2071      2073      2075      2074      2076      2078      2077      2079
      2081      2080      2082      2084      2083      2085      2087      2086      2088
      2090      2089      2091      2093      2092      2094      2096      2095      2097
      2099      2098      2100      2102      2101      2103      2105      2104      2106
      2108      2107      2109      2111      2110      2112      2114      2113      2115
      2117      2116      2118      2120      2119      2121      2123      2122      2124
      2126      2125      2127      2129      2128      2130      2132      2131      2133
      2135      2134      2136      2138      2137      2139      2141      2140      2142
      2144      2143      2145      2147      2146      2148      2150      2149      2151
      2153      2152      2154      2156      2155      2157      2159      2158      2160
      2162      2161      2163      2165      2164      2166      2168      2167      2169
      2171      2170      2172      2174      2173      2175      2177      2176      2178
      2180      2179      2181      2183      2182      2184      2186      2185      2187
      2189      2188      2190      2192      2191      2193      2195      2194      2196
      2198      2197      2199      2201      2200      2202      2204      2203      2205
      2207      2206      2208      2210      2209      2211      2213      2212      2214
      2216      2215      2217      2219      2218      2220      2222      2221      2223
      2225      2224      2226      2228      2227      2229      2231      2230      2232
      2234      2233      2235      2237      2236      2238      2240      2239      2241
      2243      2242      2244      2246      2245      2247      2249      2248      2250
      2252      2251      2253      2255      2254      2256      2258      2257      2259
      2261      2260      2262      2264      2263      2265      2267      2266      2268
      2270      2269      2271      2273      2272      2274      2276      2275      2277
      2279      2278      2280      2282      2281      2283      2285      2284      2286
      2288      2287      2289      2291      2290      2292      2294      2293      2295
      2297      2296      2298      2300      2299      2301      2303      2302      2304
      2306      2305      2307      2309      2308      2310      2312      2311      2313
      2315      2314      2316      2318      2317      2319      2321      2320      2322
      2324      2323      2325      2327      2326      2328      2330      2329      2331
      2333      2332      2334      2336      2335      2337      2339      2338      2340
      2342      2341      2343      2345      2344      2346      2348      2347      2349
      2351      2350      2352      2354      2353      2355      2357      2356      2358
      2360      2359      2361      2363      2362      2364      2366      2365      2367
      2369      2368      2370      2372      2371      2373      2375      2374      2376
      2378      2377      2379      2381      2380      2382      2384      2383      2385
      2387      2386      2388      2390      2389      2391      2393      2392      2394
      2396      2395      2397      2399      2398      2400      2402      2401      2403
      2405      2404      2406      2408      2407      2409      2411      2410      2412
      2414      2413      2415      2417      2416      2418      2420      2419      2421
      2423      2422      2424      2426      2425      2427      2429      2428      2430
      2432      2431      2433      2435      2434      2436      2438      2437      2439
      2441      2440      2442      2444      2443      2445      2447      2446      2448
      2450      2449      2451      2453      2452      2454      2456      2455      2457
      2459      2458      2460      2462      2461      2463      2465      2464      2466
      2468      2467      2469      2471      2470      2472      2474      2473      2475
      2477      2476      2478      2480      2479      2481      2483      2482      2484
      2486      2485      2487      2489      2488      2490      2492      2491      2493
      2495      2494      2496      2498      2497      2499      2501      2500      2502
      2504      2503      2505      2507      2506      2508      2510      2509      2511
      2513      2512      2514      2516      2515      2517      2519      2518      2520
      2522      2521      2523      2525      2524      2526      2528      2527      2529
      2531      2530      2532      2534      2533      2535      2537      2536      2538
      2540      2539      2541      2543      2542      2544      2546      2545      2547
      2549      2548      2550      2552      2551      2553      2555      2554      2556
      2558      2557      2559      2561      2560      2562      2564      2563      2565
      2567      2566      2568      2570      2569      2571      2573      2572      2574
      2576      2575      2577      2579      2578      2580      2582      2581      2583
      2585      2584      2586      2588      2587      2589      2591      2590      2592
      2594      2593      2595      2597      2596      2598      2600      2599      2601
      2603      2602      2604      2606      2605      2607      2609      2608      2610
      2612      2611      2613      2615      2614      2616      2618      2617      2619
      2621      2620      2622      2624      2623      2625      2627      2626      2628
      2630      2629      2631      2633      2632      2634      2636      2635      2637
      2639      2638      2640      2642      2641      2643      2645      2644      2646
      2648      2647      2649      2651      2650      2652      2654      2653      2655
      2657      2656      2658      2660      2659      2661      2663      2662      2664
      2666      2665      2667      2669      2668      2670      2672      2671      2673
      2675      2674      2676      2678      2677      2679      2681      2680      2682
      2684      2683      2685      2687      2686      2688      2690      2689      2691
      2693      2692      2694      2696      2695      2697      2699      2698      2700
      2702      2701      2703      2705      2704      2706      2708      2707      2709
      2711      2710      2712      2714      2713      2715      2717      2716      2718
      2720      2719      2721      2723      2722      2724      2726      2725      2727
      2729      2728      2730      2732      2731      2733      2735      2734      2736
      2738      2737      2739      2741      2740      2742      2744      2743      2745
      2747      2746      2748      2750      2749      2751      2753      2752      2754
      2756      2755      2757      2759      2758      2760      2762      2761      2763
      2765      2764      2766      2768      2767      2769      2771      2770      2772
      2774      2773      2775      2777      2776      2778      2780      2779      2781
      2783      2782      2784      2786      2785      2787      2789      2788      2790
      2792      2791      2793      2795      2794      2796      2798      2797      2799
      2801      2800      2802      2804      2803      2805      2807      2806      2808
      2810      2809      2811      2813      2812      2814      2816      2815      2817
      2819      2818      2820      2822      2821      2823      2825      2824      2826
      2828      2827      2829      2831      2830      2832      2834      2833      2835
      2837      2836      2838      2840      2839      2841      2843      2842      2844
      2846      2845      2847      2849      2848      2850      2852      2851      2853
      2855      2854      2856      2858      2857      2859      2861      2860      2862
      2864      2863      2865      2867      2866      2868      2870      2869      2871
      2873      2872      2874      2876      2875      2877      2879      2878      2880
      2882      2881      2883      2885      2884      2886      2888      2887      2889
      2891      2890      2892      2894      2893      2895      2897      2896      2898
      2900      2899      2901      2903      2902      2904      2906      2905      2907
      2909      2908      2910      2912      2911      2913      2915      2914      2916
      2918      2917      2919      2921      2920      2922      2924      2923      2925
      2927      2926      2928      2930      2929      2931      2933      2932      2934
      2936      2935      2937      2939      2938      2940      2942      2941      2943
      2945      2944      2946      2948      2947      2949      2951      2950      2952
      2954      2953      2955      2957      2956      2958      2960      2959      2961
      2963      2962      2964      2966      2965      2967      2969      2968      2970
      2972      2971      2973      2975      2974      2976      2978      2977      2979
      2981      2980      2982      2984      2983      2985      2987      2986      2988
      2990      2989      2991      2993      2992      2994      2996      2995      2997
      2999      2998      3000      3002      3001      3003      3005      3004      3006
      3008      3007      3009      3011      3010      3012      3014      3013      3015
      3017      3016      3018      3020      3019      3021      3023      3022      3024
      3026      3025      3027      3029      3028      3030      3032      3031      3033
      3035      3034      3036      3038      3037      3039      3041      3040      3042
      3044      3043      3045      3047      3046      3048      3050      3049      3051
      3053      3052      3054      3056      3055      3057      3059      3058      3060
      3062      3061      3063      3065      3064      3066      3068      3067      3069
      3071      3070      3072      3074      3073      3075      3077      3076      3078
      3080      3079      3081      3083      3082      3084      3086      3085      3087
      3089      3088      3090      3092      3091      3093      3095      3094      3096
      3098      3097      3099      3101      3100      3102      3104      3103      3105
      3107      3106      3108      3110      3109      3111      3113      3112      3114
      3116      3115      3117      3119      3118      3120      3122      3121      3123
      3125      3124      3126      3128      3127      3129      3131      3130      3132
      3134      3133      3135      3137      3136      3138      3140      3139      3141
      3143      3142      3144      3146      3145      3147      3149      3148      3150
      3152      3151      3153      3155      3154      3156      3158      3157      3159
      3161      3160      3162      3164      3163      3165      3167      3166      3168
      3170      3169      3171      3173      3172      3174      3176      3175      3177
      3179      3178      3180      3182      3181      3183      3185      3184      3186
      3188      3187      3189      3191      3190      3192      3194      3193      3195
      3197      3196      3198      3200      3199      3201      3203      3202      3204
      3206      3205      3207      3209      3208      3210      3212      3211      3213
      3215      3214      3216      3218      3217      3219      3221      3220      3222
      3224      3223      3225      3227      3226      3228      3230      3229      3231
      3233      3232      3234      3236      3235      3237      3239      3238      3240
      3242      3241      3243      3245      3244      3246      3248      3247      3249
      3251      3250      3252      3254      3253      3255      3257      3256      3258
      3260      3259      3261      3263      3262      3264      3266      3265      3267
      3269      3268      3270      3272      3271      3273      3275      3274      3276
      3278      3277      3279      3281      3280      3282      3284      3283      3285
      3287      3286      3288      3290      3289      3291      3293      3292      3294
      3296      3295      3297      3299      3298      3300      3302      3301      3303
      3305      3304      3306      3308      3307      3309      3311      3310      3312
      3314      3313      3315      3317      3316      3318      3320      3319      3321
      3323      3322      3324      3326      3325      3327      3329      3328      3330
      3332      3331      3333      3335      3334      3336      3338      3337      3339
      3341      3340      3342      3344      3343      3345      3347      3346      3348
      3350      3349      3351      3353      3352      3354      3356      3355      3357
      3359      3358      3360      3362      3361      3363      3365      3364      3366
      3368      3367      3369      3371      3370      3372      3374      3373      3375
      3377      3376      3378      3380      3379      3381      3383      3382      3384
      3386      3385      3387      3389      3388      3390      3392      3391      3393
      3395      3394      3396      3398      3397      3399      3401      3400      3402
      3404      3403      3405      3407      3406      3408      3410      3409      3411
      3413      3412      3414      3416      3415      3417      3419      3418      3420
      3422      3421      3423      3425      3424      3426      3428      3427      3429
      3431      3430      3432      3434      3433      3435      3437      3436      3438
      3440      3439      3441      3443      3442      3444      3446      3445      3447
      3449      3448      3450      3452      3451      3453      3455      3454      3456
      3458      3457      3459      3461      3460      3462      3464      3463      3465
      3467      3466      3468      3470      3469      3471      3473      3472      3474
      3476      3475      3477      3479      3478      3480      3482      3481      3483
      3485      3484      3486      3488      3487      3489      3491      3490      3492
      3494      3493      3495      3497      3496      3498      3500      3499      3501
      3503      3502      3504      3506      3505      3507      3509      3508      3510
      3512      3511      3513      3515      3514      3516      3518      3517      3519
      3521      3520      3522      3524      3523      3525      3527      3526      3528
      3530      3529      3531      3533      3532      3534      3536      3535      3537
      3539      3538      3540      3542      3541      3543      3545      3544      3546
      3548      3547      3549      3551      3550      3552      3554      3553      3555
      3557      3556      3558      3560      3559      3561      3563      3562      3564
      3566      3565      3567      3569      3568      3570      3572      3571      3573
      3575      3574      3576      3578      3577      3579      3581      3580      3582
      3584      3583      3585      3587      3586      3588      3590      3589      3591
      3593      3592      3594      3596      3595      3597      3599      3598      3600
      3602      3601      3603      3605      3604      3606      3608      3607      3609
      3611      3610      3612      3614      3613      3615      3617      3616      3618
      3620      3619      3621      3623      3622      3624      3626      3625      3627
      3629      3628      3630      3632      3631      3633      3635      3634      3636
      3638      3637      3639      3641      3640      3642      3644      3643      3645
      3647      3646      3648      3650      3649      3651      3653      3652      3654
      3656      3655      3657      3659      3658      3660      3662      3661      3663
      3665      3664      3666      3668      3667      3669      3671      3670      3672
      3674      3673      3675      3677      3676      3678      3680      3679      3681
      3683      3682      3684      3686      3685      3687      3689      3688      3690
      3692      3691      3693      3695      3694      3696      3698      3697      3699
      3701      3700      3702      3704      3703      3705      3707      3706      3708
      3710      3709      3711      3713      3712      3714      3716      3715      3717
      3719      3718      3720      3722      3721      3723      3725      3724      3726
      3728      3727      3729      3731      3730      3732      3734      3733      3735
      3737      3736      3738      3740      3739      3741      3743      3742      3744
      3746      3745      3747      3749      3748      3750      3752      3751      3753
      3755      3754      3756      3758      3757      3759      3761      3760      3762
      3764      3763      3765      3767      3766      3768      3770      3769      3771
      3773      3772      3774      3776      3775      3777      3779      3778      3780
      3782      3781      3783      3785      3784      3786      3788      3787      3789
      3791      3790      3792      3794      3793      3795      3797      3796      3798
      3800      3799      3801      3803      3802      3804      3806      3805      3807
      3809      3808      3810      3812      3811      3813      3815      3814      3816
      3818      3817      3819      3821      3820      3822      3824      3823      3825
      3827      3826      3828      3830      3829      3831      3833      3832      3834
      3836      3835      3837      3839      3838      3840      3842      3841      3843
      3845      3844      3846      3848      3847      3849      3851      3850      3852
      3854      3853      3855      3857      3856      3858      3860      3859      3861
      3863      3862      3864      3866      3865      3867      3869      3868      3870
      3872      3871      3873      3875      3874      3876      3878      3877      3879
      3881      3880      3882      3884      3883      3885      3887      3886      3888
      3890      3889      3891      3893      3892      3894      3896      3895      3897
      3899      3898      3900      3902      3901      3903      3905      3904      3906
      3908      3907      3909      3911      3910      3912      3914      3913      3915
      3917      3916      3918      3920      3919      3921      3923      3922      3924
      3926      3925      3927      3929      3928      3930      3932      3931      3933
      3935      3934      3936      3938      3937      3939      3941      3940      3942
      3944      3943      3945      3947      3946      3948      3950      3949      3951
      3953      3952      3954      3956      3955      3957      3959      3958      3960
      3962      3961      3963      3965      3964      3966      3968      3967      3969
      3971      3970      3972      3974      3973      3975      3977      3976      3978
      3980      3979      3981      3983      3982      3984      3986      3985      3987
      3989      3988      3990      3992      3991      3993      3995      3994      3996
      3998      3997      3999      4001      4000      4002      4004      4003      4005
      4007      4006      4008      4010      4009      4011      4013      4012      4014
      4016      4015      4017      4019      4018      4020      4022      4021      4023
      4025      4024      4026      4028      4027      4029      4031      4030      4032
      4034      4033      4035      4037      4036      4038      4040      4039      4041
      4043      4042      4044      4046      4045      4047      4049      4048      4050
      4052      4051      4053      4055      4054      4056      4058      4057      4059
      4061      4060      4062      4064      4063      4065      4067      4066      4068
      4070      4069      4071      4073      4072      4074      4076      4075      4077
      4079      4078      4080      4082      4081      4083      4085      4084      4086
      4088      4087      4089      4091      4090      4092      4094      4093      4095
      4097      4096      4098      4100      4099      4101      4103      4102      4104
      4106      4105      4107      4109      4108      4110      4112      4111      4113
      4115      4114      4116      4118      4117      4119      4121      4120      4122
      4124      4123      4125      4127      4126      4128      4130      4129      4131
      4133      4132      4134      4136      4135      4137      4139      4138      4140
      4142      4141      4143      4145      4144      4146      4148      4147      4149
      4151      4150      4152      4154      4153      4155      4157      4156      4158
      4160      4159      4161      4163      4162      4164      4166      4165      4167
      4169      4168      4170      4172      4171      4173      4175      4174      4176
      4178      4177      4179      4181      4180      4182      4184      4183      4185
      4187      4186      4188      4190      4189      4191      4193      4192      4194
      4196      4195      4197      4199      4198      4200      4202      4201      4203
      4205      4204      4206      4208      4207      4209      4211      4210      4212
      4214      4213      4215      4217      4216      4218      4220      4219      4221
      4223      4222      4224      4226      4225      4227      4229      4228      4230
      4232      4231      4233      4235      4234      4236      4238      4237      4239
      4241      4240      4242      4244      4243      4245      4247      4246      4248
      4250      4249      4251      4253      4252      4254      4256      4255      4257
      4259      4258      4260      4262      4261      4263      4265      4264      4266
      4268      4267      4269      4271      4270      4272      4274      4273      4275
      4277      4276      4278      4280      4279      4281      4283      4282      4284
      4286      4285      4287      4289      4288      4290      4292      4291      4293
      4295      4294      4296      4298      4297      4299      4301      4300      4302
      4304      4303      4305      4307      4306      4308      4310      4309      4311
      4313      4312      4314      4316      4315      4317      4319      4318      4320
      4322      4321      4323      4325      4324      4326      4328      4327      4329
      4331      4330      4332      4334      4333      4335      4337      4336      4338
      4340      4339      4341      4343      4342      4344      4346      4345      4347
      4349      4348      4350      4352      4351      4353      4355      4354      4356
      4358      4357      4359      4361      4360      4362      4364      4363      4365
      4367      4366      4368      4370      4369      4371      4373      4372      4374
      4376      4375      4377      4379      4378      4380      4382      4381      4383
      4385      4384      4386      4388      4387      4389      4391      4390      4392
      4394      4393      4395      4397      4396      4398      4400      4399      4401
      4403      4402      4404      4406      4405      4407      4409      4408      4410
      4412      4411      4413      4415      4414      4416      4418      4417      4419
      4421      4420      4422      4424      4423      4425      4427      4426      4428
      4430      4429      4431      4433      4432      4434      4436      4435      4437
      4439      4438      4440      4442      4441      4443      4445      4444      4446
      4448      4447      4449      4451      4450      4452      4454      4453      4455
      4457      4456      4458      4460      4459      4461      4463      4462      4464
      4466      4465      4467      4469      4468      4470      4472      4471      4473
      4475      4474      4476      4478      4477      4479      4481      4480      4482
      4484      4483      4485      4487      4486      4488      4490      4489      4491
      4493      4492      4494      4496      4495      4497      4499      4498      4500
      4502      4501      4503      4505      4504      4506      4508      4507      4509
      4511      4510      4512      4514      4513      4515      4517      4516      4518
      4520      4519      4521      4523      4522      4524      4526      4525      4527
      4529      4528      4530      4532      4531      4533      4535      4534      4536
      4538      4537      4539      4541      4540      4542      4544      4543      4545
      4547      4546      4548      4550      4549      4551      4553      4552      4554
      4556      4555      4557      4559      4558      4560      4562      4561      4563
      4565      4564      4566      4568      4567      4569      4571      4570      4572
      4574      4573      4575      4577      4576      4578      4580      4579      4581
      4583      4582      4584      4586      4585      4587      4589      4588      4590
      4592      4591      4593      4595      4594      4596      4598      4597      4599
      4601      4600      4602      4604      4603      4605      4607      4606      4608
      4610      4609      4611      4613      4612      4614      4616      4615      4617
      4619      4618      4620      4622      4621      4623      4625      4624      4626
      4628      4627      4629      4631      4630      4632      4634      4633      4635
      4637      4636      4638      4640      4639      4641      4643      4642      4644
      4646      4645      4647      4649      4648      4650      4652      4651      4653
      4655      4654      4656      4658      4657      4659      4661      4660      4662
      4664      4663      4665      4667      4666      4668      4670      4669      4671
      4673      4672      4674      4676      4675      4677      4679      4678      4680
      4682      4681      4683      4685      4684      4686      4688      4687      4689
      4691      4690      4692      4694      4693      4695      4697      4696      4698
      4700      4699      4701      4703      4702      4704      4706      4705      4707
      4709      4708      4710      4712      4711      4713      4715      4714      4716
      4718      4717      4719      4721      4720      4722      4724      4723      4725
      4727      4726      4728      4730      4729      4731      4733      4732      4734
      4736      4735      4737      4739      4738      4740      4742      4741      4743
      4745      4744      4746      4748      4747      4749      4751      4750      4752
      4754      4753      4755      4757      4756      4758      4760      4759      4761
      4763      4762      4764      4766      4765      4767      4769      4768      4770
      4772      4771      4773      4775      4774      4776      4778      4777      4779
      4781      4780      4782      4784      4783      4785      4787      4786      4788
      4790      4789      4791      4793      4792      4794      4796      4795      4797
      4799      4798      4800      4802      4801      4803      4805      4804      4806
      4808      4807      4809      4811      4810      4812      4814      4813      4815
      4817      4816      4818      4820      4819      4821      4823      4822      4824
      4826      4825      4827      4829      4828      4830      4832      4831      4833
      4835      4834      4836      4838      4837      4839      4841      4840      4842
      4844      4843      4845      4847      4846      4848      4850      4849      4851
      4853      4852      4854      4856      4855      4857      4859      4858      4860
      4862      4861      4863      4865      4864      4866      4868      4867      4869
      4871      4870      4872      4874      4873      4875      4877      4876      4878
      4880      4879      4881      4883      4882      4884      4886      4885      4887
      4889      4888      4890      4892      4891      4893      4895      4894      4896
      4898      4897      4899      4901      4900      4902      4904      4903      4905
      4907      4906      4908      4910      4909      4911      4913      4912      4914
      4916      4915      4917      4919      4918      4920      4922      4921      4923
      4925      4924      4926      4928      4927      4929      4931      4930      4932
      4934      4933      4935      4937      4936      4938      4940      4939      4941
      4943      4942      4944      4946      4945      4947      4949      4948      4950
      4952      4951      4953      4955      4954      4956      4958      4957      4959
      4961      4960      4962      4964      4963      4965      4967      4966      4968
      4970      4969      4971      4973      4972      4974      4976      4975      4977
      4979      4978      4980      4982      4981      4983      4985      4984      4986
      4988      4987      4989      4991      4990      4992      4994      4993      4995
      4997      4996      4998      5000      4999      5001      5003      5002      5004
      5006      5005      5007      5009      5008      5010      5012      5011      5013
      5015      5014      5016      5018      5017      5019      5021      5020      5022
      5024      5023      5025      5027      5026      5028      5030      5029      5031
      5033      5032      5034      5036      5035      5037      5039      5038      5040
      5042      5041      5043      5045      5044      5046      5048      5047      5049
      5051      5050      5052      5054      5053      5055      5057      5056      5058
      5060      5059      5061      5063      5062      5064      5066      5065      5067
      5069      5068      5070      5072      5071      5073      5075      5074      5076
      5078      5077      5079      5081      5080      5082      5084      5083      5085
      5087      5086      5088      5090      5089      5091      5093      5092      5094
      5096      5095      5097      5099      5098      5100      5102      5101      5103
      5105      5104      5106      5108      5107      5109      5111      5110      5112
      5114      5113      5115      5117      5116      5118      5120      5119      5121
      5123      5122      5124      5126      5125      5127      5129      5128      5130
      5132      5131      5133      5135      5134      5136      5138      5137      5139
      5141      5140      5142      5144      5143      5145      5147      5146      5148
      5150      5149      5151      5153      5152      5154      5156      5155      5157
      5159      5158      5160      5162      5161      5163      5165      5164      5166
      5168      5167      5169      5171      5170      5172      5174      5173      5175
      5177      5176      5178

         0 !NPHI: dihedrals


         0 !NIMPHI: impropers


      3452 !NDON: donors
         1         2         1         3         4         5         4         6
         7         8         7         9        10        11        10        12
        13        14        13        15        16        17        16        18
        19        20        19        21        22        23        22        24
        25        26        25        27        28        29        28        30
        31        32        31        33        34        35        34        36
        37        38        37        39        40        41        40        42
        43        44        43        45        46        47        46        48
        49        50        49        51        52        53        52        54
        55        56        55        57        58        59        58        60
        61        62        61        63        64        65        64        66
        67        68        67        69        70        71        70        72
        73        74        73        75        76        77        76        78
        79        80        79        81        82        83        82        84
        85        86        85        87        88        89        88        90
        91        92        91        93        94        95        94        96
        97        98        97        99       100       101       100       102
       103       104       103       105       106       107       106       108
       109       110       109       111       112       113       112       114
       115       116       115       117       118       119       118       120
       121       122       121       123       124       125       124       126
       127       128       127       129       130       131       130       132
       133       134       133       135       136       137       136       138
       139       140       139       141       142       143       142       144
       145       146       145       147       148       149       148       150
       151       152       151       153       154       155       154       156
       157       158       157       159       160       161       160       162
       163       164       163       165       166       167       166       168
       169       170       169       171       172       173       172       174
       175       176       175       177       178       179       178       180
       181       182       181       183       184       185       184       186
       187       188       187       189       190       191       190       192
       193       194       193       195       196       197       196       198
       199       200       199       201       202       203       202       204
       205       206       205       207       208       209       208       210
       211       212       211       213       214       215       214       216
       217       218       217       219       220       221       220       222
       223       224       223       225       226       227       226       228
       229       230       229       231       232       233       232       234
       235       236       235       237       238       239       238       240
       241       242       241       243       244       245       244       246
       247       248       247       249       250       251       250       252
       253       254       253       255       256       257       256       258
       259       260       259       261       262       263       262       264
       265       266       265       267       268       269       268       270
       271       272       271       273       274       275       274       276
       277       278       277       279       280       281       280       282
       283       284       283       285       286       287       286       288
       289       290       289       291       292       293       292       294
       295       296       295       297       298       299       298       300
       301       302       301       303       304       305       304       306
       307       308       307       309       310       311       310       312
       313       314       313       315       316       317       316       318
       319       320       319       321       322       323       322       324
       325       326       325       327       328       329       328       330
       331       332       331       333       334       335       334       336
       337       338       337       339       340       341       340       342
       343       344       343       345       346       347       346       348
       349       350       349       351       352       353       352       354
       355       356       355       357       358       359       358       360
       361       362       361       363       364       365       364       366
       367       368       367       369       370       371       370       372
       373       374       373       375       376       377       376       378
       379       380       379       381       382       383       382       384
       385       386       385       387       388       389       388       390
       391       392       391       393       394       395       394       396
       397       398       397       399       400       401       400       402
       403       404       403       405       406       407       406       408
       409       410       409       411       412       413       412       414
       415       416       415       417       418       419       418       420
       421       422       421       423       424       425       424       426
       427       428       427       429       430       431       430       432
       433       434       433       435       436       437       436       438
       439       440       439       441       442       443       442       444
       445       446       445       447       448       449       448       450
       451       452       451       453       454       455       454       456
       457       458       457       459       460       461       460       462
       463       464       463       465       466       467       466       468
       469       470       469       471       472       473       472       474
       475       476       475       477       478       479       478       480
       481       482       481       483       484       485       484       486
       487       488       487       489       490       491       490       492
       493       494       493       495       496       497       496       498
       499       500       499       501       502       503       502       504
       505       506       505       507       508       509       508       510
       511       512       511       513       514       515       514       516
       517       518       517       519       520       521       520       522
       523       524       523       525       526       527       526       528
       529       530       529       531       532       533       532       534
       535       536       535       537       538       539       538       540
       541       542       541       543       544       545       544       546
       547       548       547       549       550       551       550       552
       553       554       553       555       556       557       556       558
       559       560       559       561       562       563       562       564
       565       566       565       567       568       569       568       570
       571       572       571       573       574       575       574       576
       577       578       577       579       580       581       580       582
       583       584       583       585       586       587       586       588
       589       590       589       591       592       593       592       594
       595       596       595       597       598       599       598       600
       601       602       601       603       604       605       604       606
       607       608       607       609       610       611       610       612
       613       614       613       615       616       617       616       618
       619       620       619       621       622       623       622       624
       625       626       625       627       628       629       628       630
       631       632       631       633       634       635       634       636
       637       638       637       639       640       641       640       642
       643       644       643       645       646       647       646       648
       649       650       649       651       652       653       652       654
       655       656       655       657       658       659       658       660
       661       662       661       663       664       665       664       666
       667       668       667       669       670       671       670       672
       673       674       673       675       676       677       676       678
       679       680       679       681       682       683       682       684
       685       686       685       687       688       689       688       690
       691       692       691       693       694       695       694       696
       697       698       697       699       700       701       700       702
       703       704       703       705       706       707       706       708
       709       710       709       711       712       713       712       714
       715       716       715       717       718       719       718       720
       721       722       721       723       724       725       724       726
       727       728       727       729       730       731       730       732
       733       734       733       735       736       737       736       738
       739       740       739       741       742       743       742       744
       745       746       745       747       748       749       748       750
       751       752       751       753       754       755       754       756
       757       758       757       759       760       761       760       762
       763       764       763       765       766       767       766       768
       769       770       769       771       772       773       772       774
       775       776       775       777       778       779       778       780
       781       782       781       783       784       785       784       786
       787       788       787       789       790       791       790       792
       793       794       793       795       796       797       796       798
       799       800       799       801       802       803       802       804
       805       806       805       807       808       809       808       810
       811       812       811       813       814       815       814       816
       817       818       817       819       820       821       820       822
       823       824       823       825       826       827       826       828
       829       830       829       831       832       833       832       834
       835       836       835       837       838       839       838       840
       841       842       841       843       844       845       844       846
       847       848       847       849       850       851       850       852
       853       854       853       855       856       857       856       858
       859       860       859       861       862       863       862       864
       865       866       865       867       868       869       868       870
       871       872       871       873       874       875       874       876
       877       878       877       879       880       881       880       882
       883       884       883       885       886       887       886       888
       889       890       889       891       892       893       892       894
       895       896       895       897       898       899       898       900
       901       902       901       903       904       905       904       906
       907       908       907       909       910       911       910       912
       913       914       913       915       916       917       916       918
       919       920       919       921       922       923       922       924
       925       926       925       927       928       929       928       930
       931       932       931       933       934       935       934       936
       937       938       937       939       940       941       940       942
       943       944       943       945       946       947       946       948
       949       950       949       951       952       953       952       954
       955       956       955       957       958       959       958       960
       961       962       961       963       964       965       964       966
       967       968       967       969       970       971       970       972
       973       974       973       975       976       977       976       978
       979       980       979       981       982       983       982       984
       985       986       985       987       988       989       988       990
       991       992       991       993       994       995       994       996
       997       998       997       999      1000      1001      1000      1002
      1003      1004      1003      1005      1006      1007      1006      1008
      1009      1010      1009      1011      1012      1013      1012      1014
      1015      1016      1015      1017      1018      1019      1018      1020
      1021      1022      1021      1023      1024      1025      1024      1026
      1027      1028      1027      1029      1030      1031      1030      1032
      1033      1034      1033      1035      1036      1037      1036      1038
      1039      1040      1039      1041      1042      1043      1042      1044
      1045      1046      1045      1047      1048      1049      1048      1050
      1051      1052      1051      1053      1054      1055      1054      1056
      1057      1058      1057      1059      1060      1061      1060      1062
      1063      1064      1063      1065      1066      1067      1066      1068
      1069      1070      1069      1071      1072      1073      1072      1074
      1075      1076      1075      1077      1078      1079      1078      1080
      1081      1082      1081      1083      1084      1085      1084      1086
      1087      1088      1087      1089      1090      1091      1090      1092
      1093      1094      1093      1095      1096      1097      1096      1098
      1099      1100      1099      1101      1102      1103      1102      1104
      1105      1106      1105      1107      1108      1109      1108      1110
      1111      1112      1111      1113      1114      1115      1114      1116
      1117      1118      1117      1119      1120      1121      1120      1122
      1123      1124      1123      1125      1126      1127      1126      1128
      1129      1130      1129      1131      1132      1133      1132      1134
      1135      1136      1135      1137      1138      1139      1138      1140
      1141      1142      1141      1143      1144      1145      1144      1146
      1147      1148      1147      1149      1150      1151      1150      1152
      1153      1154      1153      1155      1156      1157      1156      1158
      1159      1160      1159      1161      1162      1163      1162      1164
      1165      1166      1165      1167      1168      1169      1168      1170
      1171      1172      1171      1173      1174      1175      1174      1176
      1177      1178      1177      1179      1180      1181      1180      1182
      1183      1184      1183      1185      1186      1187      1186      1188
      1189      1190      1189      1191      1192      1193      1192      1194
      1195      1196      1195      1197      1198      1199      1198      1200
      1201      1202      1201      1203      1204      1205      1204      1206
      1207      1208      1207      1209      1210      1211      1210      1212
      1213      1214      1213      1215      1216      1217      1216      1218
      1219      1220      1219      1221      1222      1223      1222      1224
      1225      1226      1225      1227      1228      1229      1228      1230
      1231      1232      1231      1233      1234      1235      1234      1236
      1237      1238      1237      1239      1240      1241      1240      1242
      1243      1244      1243      1245      1246      1247      1246      1248
      1249      1250      1249      1251      1252      1253      1252      1254
      1255      1256      1255      1257      1258      1259      1258      1260
      1261      1262      1261      1263      1264      1265      1264      1266
      1267      1268      1267      1269      1270      1271      1270      1272
      1273      1274      1273      1275      1276      1277      1276      1278
      1279      1280      1279      1281      1282      1283      1282      1284
      1285      1286      1285      1287      1288      1289      1288      1290
      1291      1292      1291      1293      1294      1295      1294      1296
      1297      1298      1297      1299      1300      1301      1300      1302
      1303      1304      1303      1305      1306      1307      1306      1308
      1309      1310      1309      1311      1312      1313      1312      1314
      1315      1316      1315      1317      1318      1319      1318      1320
      1321      1322      1321      1323      1324      1325      1324      1326
      1327      1328      1327      1329      1330      1331      1330      1332
      1333      1334      1333      1335      1336      1337      1336      1338
      1339      1340      1339      1341      1342      1343      1342      1344
      1345      1346      1345      1347      1348      1349      1348      1350
      1351      1352      1351      1353      1354      1355      1354      1356
      1357      1358      1357      1359      1360      1361      1360      1362
      1363      1364      1363      1365      1366      1367      1366      1368
      1369      1370      1369      1371      1372      1373      1372      1374
      1375      1376      1375      1377      1378      1379      1378      1380
      1381      1382      1381      1383      1384      1385      1384      1386
      1387      1388      1387      1389      1390      1391      1390      1392
      1393      1394      1393      1395      1396      1397      1396      1398
      1399      1400      1399      1401      1402      1403      1402      1404
      1405      1406      1405      1407      1408      1409      1408      1410
      1411      1412      1411      1413      1414      1415      1414      1416
      1417      1418      1417      1419      1420      1421      1420      1422
      1423      1424      1423      1425      1426      1427      1426      1428
      1429      1430      1429      1431      1432      1433      1432      1434
      1435      1436      1435      1437      1438      1439      1438      1440
      1441      1442      1441      1443      1444      1445      1444      1446
      1447      1448      1447      1449      1450      1451      1450      1452
      1453      1454      1453      1455      1456      1457      1456      1458
      1459      1460      1459      1461      1462      1463      1462      1464
      1465      1466      1465      1467      1468      1469      1468      1470
      1471      1472      1471      1473      1474      1475      1474      1476
      1477      1478      1477      1479      1480      1481      1480      1482
      1483      1484      1483      1485      1486      1487      1486      1488
      1489      1490      1489      1491      1492      1493      1492      1494
      1495      1496      1495      1497      1498      1499      1498      1500
      1501      1502      1501      1503      1504      1505      1504      1506
      1507      1508      1507      1509      1510      1511      1510      1512
      1513      1514      1513      1515      1516      1517      1516      1518
      1519      1520      1519      1521      1522      1523      1522      1524
      1525      1526      1525      1527      1528      1529      1528      1530
      1531      1532      1531      1533      1534      1535      1534      1536
      1537      1538      1537      1539      1540      1541      1540      1542
      1543      1544      1543      1545      1546      1547      1546      1548
      1549      1550      1549      1551      1552      1553      1552      1554
      1555      1556      1555      1557      1558      1559      1558      1560
      1561      1562      1561      1563      1564      1565      1564      1566
      1567      1568      1567      1569      1570      1571      1570      1572
      1573      1574      1573      1575      1576      1577      1576      1578
      1579      1580      1579      1581      1582      1583      1582      1584
      1585      1586      1585      1587      1588      1589      1588      1590
      1591      1592      1591      1593      1594      1595      1594      1596
      1597      1598      1597      1599      1600      1601      1600      1602
      1603      1604      1603      1605      1606      1607      1606      1608
      1609      1610      1609      1611      1612      1613      1612      1614
      1615      1616      1615      1617      1618      1619      1618      1620
      1621      1622      1621      1623      1624      1625      1624      1626
      1627      1628      1627      1629      1630      1631      1630      1632
      1633      1634      1633      1635      1636      1637      1636      1638
      1639      1640      1639      1641      1642      1643      1642      1644
      1645      1646      1645      1647      1648      1649      1648      1650
      1651      1652      1651      1653      1654      1655      1654      1656
      1657      1658      1657      1659      1660      1661      1660      1662
      1663      1664      1663      1665      1666      1667      1666      1668
      1669      1670      1669      1671      1672      1673      1672      1674
      1675      1676      1675      1677      1678      1679      1678      1680
      1681      1682      1681      1683      1684      1685      1684      1686
      1687      1688      1687      1689      1690      1691      1690      1692
      1693      1694      1693      1695      1696      1697      1696      1698
      1699      1700      1699      1701      1702      1703      1702      1704
      1705      1706      1705      1707      1708      1709      1708      1710
      1711      1712      1711      1713      1714      1715      1714      1716
      1717      1718      1717      1719      1720      1721      1720      1722
      1723      1724      1723      1725      1726      1727      1726      1728
      1729      1730      1729      1731      1732      1733      1732      1734
      1735      1736      1735      1737      1738      1739      1738      1740
      1741      1742      1741      1743      1744      1745      1744      1746
      1747      1748      1747      1749      1750      1751      1750      1752
      1753      1754      1753      1755      1756      1757      1756      1758
      1759      1760      1759      1761      1762      1763      1762      1764
      1765      1766      1765      1767      1768      1769      1768      1770
      1771      1772      1771      1773      1774      1775      1774      1776
      1777      1778      1777      1779      1780      1781      1780      1782
      1783      1784      1783      1785      1786      1787      1786      1788
      1789      1790      1789      1791      1792      1793      1792      1794
      1795      1796      1795      1797      1798      1799      1798      1800
      1801      1802      1801      1803      1804      1805      1804      1806
      1807      1808      1807      1809      1810      1811      1810      1812
      1813      1814      1813      1815      1816      1817      1816      1818
      1819      1820      1819      1821      1822      1823      1822      1824
      1825      1826      1825      1827      1828      1829      1828      1830
      1831      1832      1831      1833      1834      1835      1834      1836
      1837      1838      1837      1839      1840      1841      1840      1842
      1843      1844      1843      1845      1846      1847      1846      1848
      1849      1850      1849      1851      1852      1853      1852      1854
      1855      1856      1855      1857      1858      1859      1858      1860
      1861      1862      1861      1863      1864      1865      1864      1866
      1867      1868      1867      1869      1870      1871      1870      1872
      1873      1874      1873      1875      1876      1877      1876      1878
      1879      1880      1879      1881      1882      1883      1882      1884
      1885      1886      1885      1887      1888      1889      1888      1890
      1891      1892      1891      1893      1894      1895      1894      1896
      1897      1898      1897      1899      1900      1901      1900      1902
      1903      1904      1903      1905      1906      1907      1906      1908
      1909      1910      1909      1911      1912      1913      1912      1914
      1915      1916      1915      1917      1918      1919      1918      1920
      1921      1922      1921      1923      1924      1925      1924      1926
      1927      1928      1927      1929      1930      1931      1930      1932
      1933      1934      1933      1935      1936      1937      1936      1938
      1939      1940      1939      1941      1942      1943      1942      1944
      1945      1946      1945      1947      1948      1949      1948      1950
      1951      1952      1951      1953      1954      1955      1954      1956
      1957      1958      1957      1959      1960      1961      1960      1962
      1963      1964      1963      1965      1966      1967      1966      1968
      1969      1970      1969      1971      1972      1973      1972      1974
      1975      1976      1975      1977      1978      1979      1978      1980
      1981      1982      1981      1983      1984      1985      1984      1986
      1987      1988      1987      1989      1990      1991      1990      1992
      1993      1994      1993      1995      1996      1997      1996      1998
      1999      2000      1999      2001      2002      2003      2002      2004
      2005      2006      2005      2007      2008      2009      2008      2010
      2011      2012      2011      2013      2014      2015      2014      2016
      2017      2018      2017      2019      2020      2021      2020      2022
      2023      2024      2023      2025      2026      2027      2026      2028
      2029      2030      2029      2031      2032      2033      2032      2034
      2035      2036      2035      2037      2038      2039      2038      2040
      2041      2042      2041      2043      2044      2045      2044      2046
      2047      2048      2047      2049      2050      2051      2050      2052
      2053      2054      2053      2055      2056      2057      2056      2058
      2059      2060      2059      2061      2062      2063      2062      2064
      2065      2066      2065      2067      2068      2069      2068      2070
      2071      2072      2071      2073      2074      2075      2074      2076
      2077      2078      2077      2079      2080      2081      2080      2082
      2083      2084      2083      2085      2086      2087      2086      2088
      2089      2090      2089      2091      2092      2093      2092      2094
      2095      2096      2095      2097      2098      2099      2098      2100
      2101      2102      2101      2103      2104      2105      2104      2106
      2107      2108      2107      2109      2110      2111      2110      2112
      2113      2114      2113      2115      2116      2117      2116      2118
      2119      2120      2119      2121      2122      2123      2122      2124
      2125      2126      2125      2127      2128      2129      2128      2130
      2131      2132      2131      2133      2134      2135      2134      2136
      2137      2138      2137      2139      2140      2141      2140      2142
      2143      2144      2143      2145      2146      2147      2146      2148
      2149      2150      2149      2151      2152      2153      2152      2154
      2155      2156      2155      2157      2158      2159      2158      2160
      2161      2162      2161      2163      2164      2165      2164      2166
      2167      2168      2167      2169      2170      2171      2170      2172
      2173      2174      2173      2175      2176      2177      2176      2178
      2179      2180      2179      2181      2182      2183      2182      2184
      2185      2186      2185      2187      2188      2189      2188      2190
      2191      2192      2191      2193      2194      2195      2194      2196
      2197      2198      2197      2199      2200      2201      2200      2202
      2203      2204      2203      2205      2206      2207      2206      2208
      2209      2210      2209      2211      2212      2213      2212      2214
      2215      2216      2215      2217      2218      2219      2218      2220
      2221      2222      2221      2223      2224      2225      2224      2226
      2227      2228      2227      2229      2230      2231      2230      2232
      2233      2234      2233      2235      2236      2237      2236      2238
      2239      2240      2239      2241      2242      2243      2242      2244
      2245      2246      2245      2247      2248      2249      2248      2250
      2251      2252      2251      2253      2254      2255      2254      2256
      2257      2258      2257      2259      2260      2261      2260      2262
      2263      2264      2263      2265      2266      2267      2266      2268
      2269      2270      2269      2271      2272      2273      2272      2274
      2275      2276      2275      2277      2278      2279      2278      2280
      2281      2282      2281      2283      2284      2285      2284      2286
      2287      2288      2287      2289      2290      2291      2290      2292
      2293      2294      2293      2295      2296      2297      2296      2298
      2299      2300      2299      2301      2302      2303      2302      2304
      2305      2306      2305      2307      2308      2309      2308      2310
      2311      2312      2311      2313      2314      2315      2314      2316
      2317      2318      2317      2319      2320      2321      2320      2322
      2323      2324      2323      2325      2326      2327      2326      2328
      2329      2330      2329      2331      2332      2333      2332      2334
      2335      2336      2335      2337      2338      2339      2338      2340
      2341      2342      2341      2343      2344      2345      2344      2346
      2347      2348      2347      2349      2350      2351      2350      2352
      2353      2354      2353      2355      2356      2357      2356      2358
      2359      2360      2359      2361      2362      2363      2362      2364
      2365      2366      2365      2367      2368      2369      2368      2370
      2371      2372      2371      2373      2374      2375      2374      2376
      2377      2378      2377      2379      2380      2381      2380      2382
      2383      2384      2383      2385      2386      2387      2386      2388
      2389      2390      2389      2391      2392      2393      2392      2394
      2395      2396      2395      2397      2398      2399      2398      2400
      2401      2402      2401      2403      2404      2405      2404      2406
      2407      2408      2407      2409      2410      2411      2410      2412
      2413      2414      2413      2415      2416      2417      2416      2418
      2419      2420      2419      2421      2422      2423      2422      2424
      2425      2426      2425      2427      2428      2429      2428      2430
      2431      2432      2431      2433      2434      2435      2434      2436
      2437      2438      2437      2439      2440      2441      2440      2442
      2443      2444      2443      2445      2446      2447      2446      2448
      2449      2450      2449      2451      2452      2453      2452      2454
      2455      2456      2455      2457      2458      2459      2458      2460
      2461      2462      2461      2463      2464      2465      2464      2466
      2467      2468      2467      2469      2470      2471      2470      2472
      2473      2474      2473      2475      2476      2477      2476      2478
      2479      2480      2479      2481      2482      2483      2482      2484
      2485      2486      2485      2487      2488      2489      2488      2490
      2491      2492      2491      2493      2494      2495      2494      2496
      2497      2498      2497      2499      2500      2501      2500      2502
      2503      2504      2503      2505      2506      2507      2506      2508
      2509      2510      2509      2511      2512      2513      2512      2514
      2515      2516      2515      2517      2518      2519      2518      2520
      2521      2522      2521      2523      2524      2525      2524      2526
      2527      2528      2527      2529      2530      2531      2530      2532
      2533      2534      2533      2535      2536      2537      2536      2538
      2539      2540      2539      2541      2542      2543      2542      2544
      2545      2546      2545      2547      2548      2549      2548      2550
      2551      2552      2551      2553      2554      2555      2554      2556
      2557      2558      2557      2559      2560      2561      2560      2562
      2563      2564      2563      2565      2566      2567      2566      2568
      2569      2570      2569      2571      2572      2573      2572      2574
      2575      2576      2575      2577      2578      2579      2578      2580
      2581      2582      2581      2583      2584      2585      2584      2586
      2587      2588      2587      2589      2590      2591      2590      2592
      2593      2594      2593      2595      2596      2597      2596      2598
      2599      2600      2599      2601      2602      2603      2602      2604
      2605      2606      2605      2607      2608      2609      2608      2610
      2611      2612      2611      2613      2614      2615      2614      2616
      2617      2618      2617      2619      2620      2621      2620      2622
      2623      2624      2623      2625      2626      2627      2626      2628
      2629      2630      2629      2631      2632      2633      2632      2634
      2635      2636      2635      2637      2638      2639      2638      2640
      2641      2642      2641      2643      2644      2645      2644      2646
      2647      2648      2647      2649      2650      2651      2650      2652
      2653      2654      2653      2655      2656      2657      2656      2658
      2659      2660      2659      2661      2662      2663      2662      2664
      2665      2666      2665      2667      2668      2669      2668      2670
      2671      2672      2671      2673      2674      2675      2674      2676
      2677      2678      2677      2679      2680      2681      2680      2682
      2683      2684      2683      2685      2686      2687      2686      2688
      2689      2690      2689      2691      2692      2693      2692      2694
      2695      2696      2695      2697      2698      2699      2698      2700
      2701      2702      2701      2703      2704      2705      2704      2706
      2707      2708      2707      2709      2710      2711      2710      2712
      2713      2714      2713      2715      2716      2717      2716      2718
      2719      2720      2719      2721      2722      2723      2722      2724
      2725      2726      2725      2727      2728      2729      2728      2730
      2731      2732      2731      2733      2734      2735      2734      2736
      2737      2738      2737      2739      2740      2741      2740      2742
      2743      2744      2743      2745      2746      2747      2746      2748
      2749      2750      2749      2751      2752      2753      2752      2754
      2755      2756      2755      2757      2758      2759      2758      2760
      2761      2762      2761      2763      2764      2765      2764      2766
      2767      2768      2767      2769      2770      2771      2770      2772
      2773      2774      2773      2775      2776      2777      2776      2778
      2779      2780      2779      2781      2782      2783      2782      2784
      2785      2786      2785      2787      2788      2789      2788      2790
      2791      2792      2791      2793      2794      2795      2794      2796
      2797      2798      2797      2799      2800      2801      2800      2802
      2803      2804      2803      2805      2806      2807      2806      2808
      2809      2810      2809      2811      2812      2813      2812      2814
      2815      2816      2815      2817      2818      2819      2818      2820
      2821      2822      2821      2823      2824      2825      2824      2826
      2827      2828      2827      2829      2830      2831      2830      2832
      2833      2834      2833      2835      2836      2837      2836      2838
      2839      2840      2839      2841      2842      2843      2842      2844
      2845      2846      2845      2847      2848      2849      2848      2850
      2851      2852      2851      2853      2854      2855      2854      2856
      2857      2858      2857      2859      2860      2861      2860      2862
      2863      2864      2863      2865      2866      2867      2866      2868
      2869      2870      2869      2871      2872      2873      2872      2874
      2875      2876      2875      2877      2878      2879      2878      2880
      2881      2882      2881      2883      2884      2885      2884      2886
      2887      2888      2887      2889      2890      2891      2890      2892
      2893      2894      2893      2895      2896      2897      2896      2898
      2899      2900      2899      2901      2902      2903      2902      2904
      2905      2906      2905      2907      2908      2909      2908      2910
      2911      2912      2911      2913      2914      2915      2914      2916
      2917      2918      2917      2919      2920      2921      2920      2922
      2923      2924      2923      2925      2926      2927      2926      2928
      2929      2930      2929      2931      2932      2933      2932      2934
      2935      2936      2935      2937      2938      2939      2938      2940
      2941      2942      2941      2943      2944      2945      2944      2946
      2947      2948      2947      2949      2950      2951      2950      2952
      2953      2954      2953      2955      2956      2957      2956      2958
      2959      2960      2959      2961      2962      2963      2962      2964
      2965      2966      2965      2967      2968      2969      2968      2970
      2971      2972      2971      2973      2974      2975      2974      2976
      2977      2978      2977      2979      2980      2981      2980      2982
      2983      2984      2983      2985      2986      2987      2986      2988
      2989      2990      2989      2991      2992      2993      2992      2994
      2995      2996      2995      2997      2998      2999      2998      3000
      3001      3002      3001      3003      3004      3005      3004      3006
      3007      3008      3007      3009      3010      3011      3010      3012
      3013      3014      3013      3015      3016      3017      3016      3018
      3019      3020      3019      3021      3022      3023      3022      3024
      3025      3026      3025      3027      3028      3029      3028      3030
      3031      3032      3031      3033      3034      3035      3034      3036
      3037      3038      3037      3039      3040      3041      3040      3042
      3043      3044      3043      3045      3046      3047      3046      3048
      3049      3050      3049      3051      3052      3053      3052      3054
      3055      3056      3055      3057      3058      3059      3058      3060
      3061      3062      3061      3063      3064      3065      3064      3066
      3067      3068      3067      3069      3070      3071      3070      3072
      3073      3074      3073      3075      3076      3077      3076      3078
      3079      3080      3079      3081      3082      3083      3082      3084
      3085      3086      3085      3087      3088      3089      3088      3090
      3091      3092      3091      3093      3094      3095      3094      3096
      3097      3098      3097      3099      3100      3101      3100      3102
      3103      3104      3103      3105      3106      3107      3106      3108
      3109      3110      3109      3111      3112      3113      3112      3114
      3115      3116      3115      3117      3118      3119      3118      3120
      3121      3122      3121      3123      3124      3125      3124      3126
      3127      3128      3127      3129      3130      3131      3130      3132
      3133      3134      3133      3135      3136      3137      3136      3138
      3139      3140      3139      3141      3142      3143      3142      3144
      3145      3146      3145      3147      3148      3149      3148      3150
      3151      3152      3151      3153      3154      3155      3154      3156
      3157      3158      3157      3159      3160      3161      3160      3162
      3163      3164      3163      3165      3166      3167      3166      3168
      3169      3170      3169      3171      3172      3173      3172      3174
      3175      3176      3175      3177      3178      3179      3178      3180
      3181      3182      3181      3183      3184      3185      3184      3186
      3187      3188      3187      3189      3190      3191      3190      3192
      3193      3194      3193      3195      3196      3197      3196      3198
      3199      3200      3199      3201      3202      3203      3202      3204
      3205      3206      3205      3207      3208      3209      3208      3210
      3211      3212      3211      3213      3214      3215      3214      3216
      3217      3218      3217      3219      3220      3221      3220      3222
      3223      3224      3223      3225      3226      3227      3226      3228
      3229      3230      3229      3231      3232      3233      3232      3234
      3235      3236      3235      3237      3238      3239      3238      3240
      3241      3242      3241      3243      3244      3245      3244      3246
      3247      3248      3247      3249      3250      3251      3250      3252
      3253      3254      3253      3255      3256      3257      3256      3258
      3259      3260      3259      3261      3262      3263      3262      3264
      3265      3266      3265      3267      3268      3269      3268      3270
      3271      3272      3271      3273      3274      3275      3274      3276
      3277      3278      3277      3279      3280      3281      3280      3282
      3283      3284      3283      3285      3286      3287      3286      3288
      3289      3290      3289      3291      3292      3293      3292      3294
      3295      3296      3295      3297      3298      3299      3298      3300
      3301      3302      3301      3303      3304      3305      3304      3306
      3307      3308      3307      3309      3310      3311      3310      3312
      3313      3314      3313      3315      3316      3317      3316      3318
      3319      3320      3319      3321      3322      3323      3322      3324
      3325      3326      3325      3327      3328      3329      3328      3330
      3331      3332      3331      3333      3334      3335      3334      3336
      3337      3338      3337      3339      3340      3341      3340      3342
      3343      3344      3343      3345      3346      3347      3346      3348
      3349      3350      3349      3351      3352      3353      3352      3354
      3355      3356      3355      3357      3358      3359      3358      3360
      3361      3362      3361      3363      3364      3365      3364      3366
      3367      3368      3367      3369      3370      3371      3370      3372
      3373      3374      3373      3375      3376      3377      3376      3378
      3379      3380      3379      3381      3382      3383      3382      3384
      3385      3386      3385      3387      3388      3389      3388      3390
      3391      3392      3391      3393      3394      3395      3394      3396
      3397      3398      3397      3399      3400      3401      3400      3402
      3403      3404      3403      3405      3406      3407      3406      3408
      3409      3410      3409      3411      3412      3413      3412      3414
      3415      3416      3415      3417      3418      3419      3418      3420
      3421      3422      3421      3423      3424      3425      3424      3426
      3427      3428      3427      3429      3430      3431      3430      3432
      3433      3434      3433      3435      3436      3437      3436      3438
      3439      3440      3439      3441      3442      3443      3442      3444
      3445      3446      3445      3447      3448      3449      3448      3450
      3451      3452      3451      3453      3454      3455      3454      3456
      3457      3458      3457      3459      3460      3461      3460      3462
      3463      3464      3463      3465      3466      3467      3466      3468
      3469      3470      3469      3471      3472      3473      3472      3474
      3475      3476      3475      3477      3478      3479      3478      3480
      3481      3482      3481      3483      3484      3485      3484      3486
      3487      3488      3487      3489      3490      3491      3490      3492
      3493      3494      3493      3495      3496      3497      3496      3498
      3499      3500      3499      3501      3502      3503      3502      3504
      3505      3506      3505      3507      3508      3509      3508      3510
      3511      3512      3511      3513      3514      3515      3514      3516
      3517      3518      3517      3519      3520      3521      3520      3522
      3523      3524      3523      3525      3526      3527      3526      3528
      3529      3530      3529      3531      3532      3533      3532      3534
      3535      3536      3535      3537      3538      3539      3538      3540
      3541      3542      3541      3543      3544      3545      3544      3546
      3547      3548      3547      3549      3550      3551      3550      3552
      3553      3554      3553      3555      3556      3557      3556      3558
      3559      3560      3559      3561      3562      3563      3562      3564
      3565      3566      3565      3567      3568      3569      3568      3570
      3571      3572      3571      3573      3574      3575      3574      3576
      3577      3578      3577      3579      3580      3581      3580      3582
      3583      3584      3583      3585      3586      3587      3586      3588
      3589      3590      3589      3591      3592      3593      3592      3594
      3595      3596      3595      3597      3598      3599      3598      3600
      3601      3602      3601      3603      3604      3605      3604      3606
      3607      3608      3607      3609      3610      3611      3610      3612
      3613      3614      3613      3615      3616      3617      3616      3618
      3619      3620      3619      3621      3622      3623      3622      3624
      3625      3626      3625      3627      3628      3629      3628      3630
      3631      3632      3631      3633      3634      3635      3634      3636
      3637      3638      3637      3639      3640      3641      3640      3642
      3643      3644      3643      3645      3646      3647      3646      3648
      3649      3650      3649      3651      3652      3653      3652      3654
      3655      3656      3655      3657      3658      3659      3658      3660
      3661      3662      3661      3663      3664      3665      3664      3666
      3667      3668      3667      3669      3670      3671      3670      3672
      3673      3674      3673      3675      3676      3677      3676      3678
      3679      3680      3679      3681      3682      3683      3682      3684
      3685      3686      3685      3687      3688      3689      3688      3690
      3691      3692      3691      3693      3694      3695      3694      3696
      3697      3698      3697      3699      3700      3701      3700      3702
      3703      3704      3703      3705      3706      3707      3706      3708
      3709      3710      3709      3711      3712      3713      3712      3714
      3715      3716      3715      3717      3718      3719      3718      3720
      3721      3722      3721      3723      3724      3725      3724      3726
      3727      3728      3727      3729      3730      3731      3730      3732
      3733      3734      3733      3735      3736      3737      3736      3738
      3739      3740      3739      3741      3742      3743      3742      3744
      3745      3746      3745      3747      3748      3749      3748      3750
      3751      3752      3751      3753      3754      3755      3754      3756
      3757      3758      3757      3759      3760      3761      3760      3762
      3763      3764      3763      3765      3766      3767      3766      3768
      3769      3770      3769      3771      3772      3773      3772      3774
      3775      3776      3775      3777      3778      3779      3778      3780
      3781      3782      3781      3783      3784      3785      3784      3786
      3787      3788      3787      3789      3790      3791      3790      3792
      3793      3794      3793      3795      3796      3797      3796      3798
      3799      3800      3799      3801      3802      3803      3802      3804
      3805      3806      3805      3807      3808      3809      3808      3810
      3811      3812      3811      3813      3814      3815      3814      3816
      3817      3818      3817      3819      3820      3821      3820      3822
      3823      3824      3823      3825      3826      3827      3826      3828
      3829      3830      3829      3831      3832      3833      3832      3834
      3835      3836      3835      3837      3838      3839      3838      3840
      3841      3842      3841      3843      3844      3845      3844      3846
      3847      3848      3847      3849      3850      3851      3850      3852
      3853      3854      3853      3855      3856      3857      3856      3858
      3859      3860      3859      3861      3862      3863      3862      3864
      3865      3866      3865      3867      3868      3869      3868      3870
      3871      3872      3871      3873      3874      3875      3874      3876
      3877      3878      3877      3879      3880      3881      3880      3882
      3883      3884      3883      3885      3886      3887      3886      3888
      3889      3890      3889      3891      3892      3893      3892      3894
      3895      3896      3895      3897      3898      3899      3898      3900
      3901      3902      3901      3903      3904      3905      3904      3906
      3907      3908      3907      3909      3910      3911      3910      3912
      3913      3914      3913      3915      3916      3917      3916      3918
      3919      3920      3919      3921      3922      3923      3922      3924
      3925      3926      3925      3927      3928      3929      3928      3930
      3931      3932      3931      3933      3934      3935      3934      3936
      3937      3938      3937      3939      3940      3941      3940      3942
      3943      3944      3943      3945      3946      3947      3946      3948
      3949      3950      3949      3951      3952      3953      3952      3954
      3955      3956      3955      3957      3958      3959      3958      3960
      3961      3962      3961      3963      3964      3965      3964      3966
      3967      3968      3967      3969      3970      3971      3970      3972
      3973      3974      3973      3975      3976      3977      3976      3978
      3979      3980      3979      3981      3982      3983      3982      3984
      3985      3986      3985      3987      3988      3989      3988      3990
      3991      3992      3991      3993      3994      3995      3994      3996
      3997      3998      3997      3999      4000      4001      4000      4002
      4003      4004      4003      4005      4006      4007      4006      4008
      4009      4010      4009      4011      4012      4013      4012      4014
      4015      4016      4015      4017      4018      4019      4018      4020
      4021      4022      4021      4023      4024      4025      4024      4026
      4027      4028      4027      4029      4030      4031      4030      4032
      4033      4034      4033      4035      4036      4037      4036      4038
      4039      4040      4039      4041      4042      4043      4042      4044
      4045      4046      4045      4047      4048      4049      4048      4050
      4051      4052      4051      4053      4054      4055      4054      4056
      4057      4058      4057      4059      4060      4061      4060      4062
      4063      4064      4063      4065      4066      4067      4066      4068
      4069      4070      4069      4071      4072      4073      4072      4074
      4075      4076      4075      4077      4078      4079      4078      4080
      4081      4082      4081      4083      4084      4085      4084      4086
      4087      4088      4087      4089      4090      4091      4090      4092
      4093      4094      4093      4095      4096      4097      4096      4098
      4099      4100      4099      4101      4102      4103      4102      4104
      4105      4106      4105      4107      4108      4109      4108      4110
      4111      4112      4111      4113      4114      4115      4114      4116
      4117      4118      4117      4119      4120      4121      4120      4122
      4123      4124      4123      4125      4126      4127      4126      4128
      4129      4130      4129      4131      4132      4133      4132      4134
      4135      4136      4135      4137      4138      4139      4138      4140
      4141      4142      4141      4143      4144      4145      4144      4146
      4147      4148      4147      4149      4150      4151      4150      4152
      4153      4154      4153      4155      4156      4157      4156      4158
      4159      4160      4159      4161      4162      4163      4162      4164
      4165      4166      4165      4167      4168      4169      4168      4170
      4171      4172      4171      4173      4174      4175      4174      4176
      4177      4178      4177      4179      4180      4181      4180      4182
      4183      4184      4183      4185      4186      4187      4186      4188
      4189      4190      4189      4191      4192      4193      4192      4194
      4195      4196      4195      4197      4198      4199      4198      4200
      4201      4202      4201      4203      4204      4205      4204      4206
      4207      4208      4207      4209      4210      4211      4210      4212
      4213      4214      4213      4215      4216      4217      4216      4218
      4219      4220      4219      4221      4222      4223      4222      4224
      4225      4226      4225      4227      4228      4229      4228      4230
      4231      4232      4231      4233      4234      4235      4234      4236
      4237      4238      4237      4239      4240      4241      4240      4242
      4243      4244      4243      4245      4246      4247      4246      4248
      4249      4250      4249      4251      4252      4253      4252      4254
      4255      4256      4255      4257      4258      4259      4258      4260
      4261      4262      4261      4263      4264      4265      4264      4266
      4267      4268      4267      4269      4270      4271      4270      4272
      4273      4274      4273      4275      4276      4277      4276      4278
      4279      4280      4279      4281      4282      4283      4282      4284
      4285      4286      4285      4287      4288      4289      4288      4290
      4291      4292      4291      4293      4294      4295      4294      4296
      4297      4298      4297      4299      4300      4301      4300      4302
      4303      4304      4303      4305      4306      4307      4306      4308
      4309      4310      4309      4311      4312      4313      4312      4314
      4315      4316      4315      4317      4318      4319      4318      4320
      4321      4322      4321      4323      4324      4325      4324      4326
      4327      4328      4327      4329      4330      4331      4330      4332
      4333      4334      4333      4335      4336      4337      4336      4338
      4339      4340      4339      4341      4342      4343      4342      4344
      4345      4346      4345      4347      4348      4349      4348      4350
      4351      4352      4351      4353      4354      4355      4354      4356
      4357      4358      4357      4359      4360      4361      4360      4362
      4363      4364      4363      4365      4366      4367      4366      4368
      4369      4370      4369      4371      4372      4373      4372      4374
      4375      4376      4375      4377      4378      4379      4378      4380
      4381      4382      4381      4383      4384      4385      4384      4386
      4387      4388      4387      4389      4390      4391      4390      4392
      4393      4394      4393      4395      4396      4397      4396      4398
      4399      4400      4399      4401      4402      4403      4402      4404
      4405      4406      4405      4407      4408      4409      4408      4410
      4411      4412      4411      4413      4414      4415      4414      4416
      4417      4418      4417      4419      4420      4421      4420      4422
      4423      4424      4423      4425      4426      4427      4426      4428
      4429      4430      4429      4431      4432      4433      4432      4434
      4435      4436      4435      4437      4438      4439      4438      4440
      4441      4442      4441      4443      4444      4445      4444      4446
      4447      4448      4447      4449      4450      4451      4450      4452
      4453      4454      4453      4455      4456      4457      4456      4458
      4459      4460      4459      4461      4462      4463      4462      4464
      4465      4466      4465      4467      4468      4469      4468      4470
      4471      4472      4471      4473      4474      4475      4474      4476
      4477      4478      4477      4479      4480      4481      4480      4482
      4483      4484      4483      4485      4486      4487      4486      4488
      4489      4490      4489      4491      4492      4493      4492      4494
      4495      4496      4495      4497      4498      4499      4498      4500
      4501      4502      4501      4503      4504      4505      4504      4506
      4507      4508      4507      4509      4510      4511      4510      4512
      4513      4514      4513      4515      4516      4517      4516      4518
      4519      4520      4519      4521      4522      4523      4522      4524
      4525      4526      4525      4527      4528      4529      4528      4530
      4531      4532      4531      4533      4534      4535      4534      4536
      4537      4538      4537      4539      4540      4541      4540      4542
      4543      4544      4543      4545      4546      4547      4546      4548
      4549      4550      4549      4551      4552      4553      4552      4554
      4555      4556      4555      4557      4558      4559      4558      4560
      4561      4562      4561      4563      4564      4565      4564      4566
      4567      4568      4567      4569      4570      4571      4570      4572
      4573      4574      4573      4575      4576      4577      4576      4578
      4579      4580      4579      4581      4582      4583      4582      4584
      4585      4586      4585      4587      4588      4589      4588      4590
      4591      4592      4591      4593      4594      4595      4594      4596
      4597      4598      4597      4599      4600      4601      4600      4602
      4603      4604      4603      4605      4606      4607      4606      4608
      4609      4610      4609      4611      4612      4613      4612      4614
      4615      4616      4615      4617      4618      4619      4618      4620
      4621      4622      4621      4623      4624      4625      4624      4626
      4627      4628      4627      4629      4630      4631      4630      4632
      4633      4634      4633      4635      4636      4637      4636      4638
      4639      4640      4639      4641      4642      4643      4642      4644
      4645      4646      4645      4647      4648      4649      4648      4650
      4651      4652      4651      4653      4654      4655      4654      4656
      4657      4658      4657      4659      4660      4661      4660      4662
      4663      4664      4663      4665      4666      4667      4666      4668
      4669      4670      4669      4671      4672      4673      4672      4674
      4675      4676      4675      4677      4678      4679      4678      4680
      4681      4682      4681      4683      4684      4685      4684      4686
      4687      4688      4687      4689      4690      4691      4690      4692
      4693      4694      4693      4695      4696      4697      4696      4698
      4699      4700      4699      4701      4702      4703      4702      4704
      4705      4706      4705      4707      4708      4709      4708      4710
      4711      4712      4711      4713      4714      4715      4714      4716
      4717      4718      4717      4719      4720      4721      4720      4722
      4723      4724      4723      4725      4726      4727      4726      4728
      4729      4730      4729      4731      4732      4733      4732      4734
      4735      4736      4735      4737      4738      4739      4738      4740
      4741      4742      4741      4743      4744      4745      4744      4746
      4747      4748      4747      4749      4750      4751      4750      4752
      4753      4754      4753      4755      4756      4757      4756      4758
      4759      4760      4759      4761      4762      4763      4762      4764
      4765      4766      4765      4767      4768      4769      4768      4770
      4771      4772      4771      4773      4774      4775      4774      4776
      4777      4778      4777      4779      4780      4781      4780      4782
      4783      4784      4783      4785      4786      4787      4786      4788
      4789      4790      4789      4791      4792      4793      4792      4794
      4795      4796      4795      4797      4798      4799      4798      4800
      4801      4802      4801      4803      4804      4805      4804      4806
      4807      4808      4807      4809      4810      4811      4810      4812
      4813      4814      4813      4815      4816      4817      4816      4818
      4819      4820      4819      4821      4822      4823      4822      4824
      4825      4826      4825      4827      4828      4829      4828      4830
      4831      4832      4831      4833      4834      4835      4834      4836
      4837      4838      4837      4839      4840      4841      4840      4842
      4843      4844      4843      4845      4846      4847      4846      4848
      4849      4850      4849      4851      4852      4853      4852      4854
      4855      4856      4855      4857      4858      4859      4858      4860
      4861      4862      4861      4863      4864      4865      4864      4866
      4867      4868      4867      4869      4870      4871      4870      4872
      4873      4874      4873      4875      4876      4877      4876      4878
      4879      4880      4879      4881      4882      4883      4882      4884
      4885      4886      4885      4887      4888      4889      4888      4890
      4891      4892      4891      4893      4894      4895      4894      4896
      4897      4898      4897      4899      4900      4901      4900      4902
      4903      4904      4903      4905      4906      4907      4906      4908
      4909      4910      4909      4911      4912      4913      4912      4914
      4915      4916      4915      4917      4918      4919      4918      4920
      4921      4922      4921      4923      4924      4925      4924      4926
      4927      4928      4927      4929      4930      4931      4930      4932
      4933      4934      4933      4935      4936      4937      4936      4938
      4939      4940      4939      4941      4942      4943      4942      4944
      4945      4946      4945      4947      4948      4949      4948      4950
      4951      4952      4951      4953      4954      4955      4954      4956
      4957      4958      4957      4959      4960      4961      4960      4962
      4963      4964      4963      4965      4966      4967      4966      4968
      4969      4970      4969      4971      4972      4973      4972      4974
      4975      4976      4975      4977      4978      4979      4978      4980
      4981      4982      4981      4983      4984      4985      4984      4986
      4987      4988      4987      4989      4990      4991      4990      4992
      4993      4994      4993      4995      4996      4997      4996      4998
      4999      5000      4999      5001      5002      5003      5002      5004
      5005      5006      5005      5007      5008      5009      5008      5010
      5011      5012      5011      5013      5014      5015      5014      5016
      5017      5018      5017      5019      5020      5021      5020      5022
      5023      5024      5023      5025      5026      5027      5026      5028
      5029      5030      5029      5031      5032      5033      5032      5034
      5035      5036      5035      5037      5038      5039      5038      5040
      5041      5042      5041      5043      5044      5045      5044      5046
      5047      5048      5047      5049      5050      5051      5050      5052
      5053      5054      5053      5055      5056      5057      5056      5058
      5059      5060      5059      5061      5062      5063      5062      5064
      5065      5066      5065      5067      5068      5069      5068      5070
      5071      5072      5071      5073      5074      5075      5074      5076
      5077      5078      5077      5079      5080      5081      5080      5082
      5083      5084      5083      5085      5086      5087      5086      5088
      5089      5090      5089      5091      5092      5093      5092      5094
      5095      5096      5095      5097      5098      5099      5098      5100
      5101      5102      5101      5103      5104      5105      5104      5106
      5107      5108      5107      5109      5110      5111      5110      5112
      5113      5114      5113      5115      5116      5117      5116      5118
      5119      5120      5119      5121      5122      5123      5122      5124
      5125      5126      5125      5127      5128      5129      5128      5130
      5131      5132      5131      5133      5134      5135      5134      5136
      5137      5138      5137      5139      5140      5141      5140      5142
      5143      5144      5143      5145      5146      5147      5146      5148
      5149      5150      5149      5151      5152      5153      5152      5154
      5155      5156      5155      5157      5158      5159      5158      5160
      5161      5162      5161      5163      5164      5165      5164      5166
      5167      5168      5167      5169      5170      5171      5170      5172
      5173      5174      5173      5175      5176      5177      5176      5178

      1726 !NACC: acceptors
         1         0         4         0         7         0        10         0
        13         0        16         0        19         0        22         0
        25         0        28         0        31         0        34         0
        37         0        40         0        43         0        46         0
        49         0        52         0        55         0        58         0
        61         0        64         0        67         0        70         0
        73         0        76         0        79         0        82         0
        85         0        88         0        91         0        94         0
        97         0       100         0       103         0       106         0
       109         0       112         0       115         0       118         0
       121         0       124         0       127         0       130         0
       133         0       136         0       139         0       142         0
       145         0       148         0       151         0       154         0
       157         0       160         0       163         0       166         0
       169         0       172         0       175         0       178         0
       181         0       184         0       187         0       190         0
       193         0       196         0       199         0       202         0
       205         0       208         0       211         0       214         0
       217         0       220         0       223         0       226         0
       229         0       232         0       235         0       238         0
       241         0       244         0       247         0       250         0
       253         0       256         0       259         0       262         0
       265         0       268         0       271         0       274         0
       277         0       280         0       283         0       286         0
       289         0       292         0       295         0       298         0
       301         0       304         0       307         0       310         0
       313         0       316         0       319         0       322         0
       325         0       328         0       331         0       334         0
       337         0       340         0       343         0       346         0
       349         0       352         0       355         0       358         0
       361         0       364         0       367         0       370         0
       373         0       376         0       379         0       382         0
       385         0       388         0       391         0       394         0
       397         0       400         0       403         0       406         0
       409         0       412         0       415         0       418         0
       421         0       424         0       427         0       430         0
       433         0       436         0       439         0       442         0
       445         0       448         0       451         0       454         0
       457         0       460         0       463         0       466         0
       469         0       472         0       475         0       478         0
       481         0       484         0       487         0       490         0
       493         0       496         0       499         0       502         0
       505         0       508         0       511         0       514         0
       517         0       520         0       523         0       526         0
       529         0       532         0       535         0       538         0
       541         0       544         0       547         0       550         0
       553         0       556         0       559         0       562         0
       565         0       568         0       571         0       574         0
       577         0       580         0       583         0       586         0
       589         0       592         0       595         0       598         0
       601         0       604         0       607         0       610         0
       613         0       616         0       619         0       622         0
       625         0       628         0       631         0       634         0
       637         0       640         0       643         0       646         0
       649         0       652         0       655         0       658         0
       661         0       664         0       667         0       670         0
       673         0       676         0       679         0       682         0
       685         0       688         0       691         0       694         0
       697         0       700         0       703         0       706         0
       709         0       712         0       715         0       718         0
       721         0       724         0       727         0       730         0
       733         0       736         0       739         0       742         0
       745         0       748         0       751         0       754         0
       757         0       760         0       763         0       766         0
       769         0       772         0       775         0       778         0
       781         0       784         0       787         0       790         0
       793         0       796         0       799         0       802         0
       805         0       808         0       811         0       814         0
       817         0       820         0       823         0       826         0
       829         0       832         0       835         0       838         0
       841         0       844         0       847         0       850         0
       853         0       856         0       859         0       862         0
       865         0       868         0       871         0       874         0
       877         0       880         0       883         0       886         0
       889         0       892         0       895         0       898         0
       901         0       904         0       907         0       910         0
       913         0       916         0       919         0       922         0
       925         0       928         0       931         0       934         0
       937         0       940         0       943         0       946         0
       949         0       952         0       955         0       958         0
       961         0       964         0       967         0       970         0
       973         0       976         0       979         0       982         0
       985         0       988         0       991         0       994         0
       997         0      1000         0      1003         0      1006         0
      1009         0      1012         0      1015         0      1018         0
      1021         0      1024         0      1027         0      1030         0
      1033         0      1036         0      1039         0      1042         0
      1045         0      1048         0      1051         0      1054         0
      1057         0      1060         0      1063         0      1066         0
      1069         0      1072         0      1075         0      1078         0
      1081         0      1084         0      1087         0      1090         0
      1093         0      1096         0      1099         0      1102         0
      1105         0      1108         0      1111         0      1114         0
      1117         0      1120         0      1123         0      1126         0
      1129         0      1132         0      1135         0      1138         0
      1141         0      1144         0      1147         0      1150         0
      1153         0      1156         0      1159         0      1162         0
      1165         0      1168         0      1171         0      1174         0
      1177         0      1180         0      1183         0      1186         0
      1189         0      1192         0      1195         0      1198         0
      1201         0      1204         0      1207         0      1210         0
      1213         0      1216         0      1219         0      1222         0
      1225         0      1228         0      1231         0      1234         0
      1237         0      1240         0      1243         0      1246         0
      1249         0      1252         0      1255         0      1258         0
      1261         0      1264         0      1267         0      1270         0
      1273         0      1276         0      1279         0      1282         0
      1285         0      1288         0      1291         0      1294         0
      1297         0      1300         0      1303         0      1306         0
      1309         0      1312         0      1315         0      1318         0
      1321         0      1324         0      1327         0      1330         0
      1333         0      1336         0      1339         0      1342         0
      1345         0      1348         0      1351         0      1354         0
      1357         0      1360         0      1363         0      1366         0
      1369         0      1372         0      1375         0      1378         0
      1381         0      1384         0      1387         0      1390         0
      1393         0      1396         0      1399         0      1402         0
      1405         0      1408         0      1411         0      1414         0
      1417         0      1420         0      1423         0      1426         0
      1429         0      1432         0      1435         0      1438         0
      1441         0      1444         0      1447         0      1450         0
      1453         0      1456         0      1459         0      1462         0
      1465         0      1468         0      1471         0      1474         0
      1477         0      1480         0      1483         0      1486         0
      1489         0      1492         0      1495         0      1498         0
      1501         0      1504         0      1507         0      1510         0
      1513         0      1516         0      1519         0      1522         0
      1525         0      1528         0      1531         0      1534         0
      1537         0      1540         0      1543         0      1546         0
      1549         0      1552         0      1555         0      1558         0
      1561         0      1564         0      1567         0      1570         0
      1573         0      1576         0      1579         0      1582         0
      1585         0      1588         0      1591         0      1594         0
      1597         0      1600         0      1603         0      1606         0
      1609         0      1612         0      1615         0      1618         0
      1621         0      1624         0      1627         0      1630         0
      1633         0      1636         0      1639         0      1642         0
      1645         0      1648         0      1651         0      1654         0
      1657         0      1660         0      1663         0      1666         0
      1669         0      1672         0      1675         0      1678         0
      1681         0      1684         0      1687         0      1690         0
      1693         0      1696         0      1699         0      1702         0
      1705         0      1708         0      1711         0      1714         0
      1717         0      1720         0      1723         0      1726         0
      1729         0      1732         0      1735         0      1738         0
      1741         0      1744         0      1747         0      1750         0
      1753         0      1756         0      1759         0      1762         0
      1765         0      1768         0      1771         0      1774         0
      1777         0      1780         0      1783         0      1786         0
      1789         0      1792         0      1795         0      1798         0
      1801         0      1804         0      1807         0      1810         0
      1813         0      1816         0      1819         0      1822         0
      1825         0      1828         0      1831         0      1834         0
      1837         0      1840         0      1843         0      1846         0
      1849         0      1852         0      1855         0      1858         0
      1861         0      1864         0      1867         0      1870         0
      1873         0      1876         0      1879         0      1882         0
      1885         0      1888         0      1891         0      1894         0
      1897         0      1900         0      1903         0      1906         0
      1909         0      1912         0      1915         0      1918         0
      1921         0      1924         0      1927         0      1930         0
      1933         0      1936         0      1939         0      1942         0
      1945         0      1948         0      1951         0      1954         0
      1957         0      1960         0      1963         0      1966         0
      1969         0      1972         0      1975         0      1978         0
      1981         0      1984         0      1987         0      1990         0
      1993         0      1996         0      1999         0      2002         0
      2005         0      2008         0      2011         0      2014         0
      2017         0      2020         0      2023         0      2026         0
      2029         0      2032         0      2035         0      2038         0
      2041         0      2044         0      2047         0      2050         0
      2053         0      2056         0      2059         0      2062         0
      2065         0      2068         0      2071         0      2074         0
      2077         0      2080         0      2083         0      2086         0
      2089         0      2092         0      2095         0      2098         0
      2101         0      2104         0      2107         0      2110         0
      2113         0      2116         0      2119         0      2122         0
      2125         0      2128         0      2131         0      2134         0
      2137         0      2140         0      2143         0      2146         0
      2149         0      2152         0      2155         0      2158         0
      2161         0      2164         0      2167         0      2170         0
      2173         0      2176         0      2179         0      2182         0
      2185         0      2188         0      2191         0      2194         0
      2197         0      2200         0      2203         0      2206         0
      2209         0      2212         0      2215         0      2218         0
      2221         0      2224         0      2227         0      2230         0
      2233         0      2236         0      2239         0      2242         0
      2245         0      2248         0      2251         0      2254         0
      2257         0      2260         0      2263         0      2266         0
      2269         0      2272         0      2275         0      2278         0
      2281         0      2284         0      2287         0      2290         0
      2293         0      2296         0      2299         0      2302         0
      2305         0      2308         0      2311         0      2314         0
      2317         0      2320         0      2323         0      2326         0
      2329         0      2332         0      2335         0      2338         0
      2341         0      2344         0      2347         0      2350         0
      2353         0      2356         0      2359         0      2362         0
      2365         0      2368         0      2371         0      2374         0
      2377         0      2380         0      2383         0      2386         0
      2389         0      2392         0      2395         0      2398         0
      2401         0      2404         0      2407         0      2410         0
      2413         0      2416         0      2419         0      2422         0
      2425         0      2428         0      2431         0      2434         0
      2437         0      2440         0      2443         0      2446         0
      2449         0      2452         0      2455         0      2458         0
      2461         0      2464         0      2467         0      2470         0
      2473         0      2476         0      2479         0      2482         0
      2485         0      2488         0      2491         0      2494         0
      2497         0      2500         0      2503         0      2506         0
      2509         0      2512         0      2515         0      2518         0
      2521         0      2524         0      2527         0      2530         0
      2533         0      2536         0      2539         0      2542         0
      2545         0      2548         0      2551         0      2554         0
      2557         0      2560         0      2563         0      2566         0
      2569         0      2572         0      2575         0      2578         0
      2581         0      2584         0      2587         0      2590         0
      2593         0      2596         0      2599         0      2602         0
      2605         0      2608         0      2611         0      2614         0
      2617         0      2620         0      2623         0      2626         0
      2629         0      2632         0      2635         0      2638         0
      2641         0      2644         0      2647         0      2650         0
      2653         0      2656         0      2659         0      2662         0
      2665         0      2668         0      2671         0      2674         0
      2677         0      2680         0      2683         0      2686         0
      2689         0      2692         0      2695         0      2698         0
      2701         0      2704         0      2707         0      2710         0
      2713         0      2716         0      2719         0      2722         0
      2725         0      2728         0      2731         0      2734         0
      2737         0      2740         0      2743         0      2746         0
      2749         0      2752         0      2755         0      2758         0
      2761         0      2764         0      2767         0      2770         0
      2773         0      2776         0      2779         0      2782         0
      2785         0      2788         0      2791         0      2794         0
      2797         0      2800         0      2803         0      2806         0
      2809         0      2812         0      2815         0      2818         0
      2821         0      2824         0      2827         0      2830         0
      2833         0      2836         0      2839         0      2842         0
      2845         0      2848         0      2851         0      2854         0
      2857         0      2860         0      2863         0      2866         0
      2869         0      2872         0      2875         0      2878         0
      2881         0      2884         0      2887         0      2890         0
      2893         0      2896         0      2899         0      2902         0
      2905         0      2908         0      2911         0      2914         0
      2917         0      2920         0      2923         0      2926         0
      2929         0      2932         0      2935         0      2938         0
      2941         0      2944         0      2947         0      2950         0
      2953         0      2956         0      2959         0      2962         0
      2965         0      2968         0      2971         0      2974         0
      2977         0      2980         0      2983         0      2986         0
      2989         0      2992         0      2995         0      2998         0
      3001         0      3004         0      3007         0      3010         0
      3013         0      3016         0      3019         0      3022         0
      3025         0      3028         0      3031         0      3034         0
      3037         0      3040         0      3043         0      3046         0
      3049         0      3052         0      3055         0      3058         0
      3061         0      3064         0      3067         0      3070         0
      3073         0      3076         0      3079         0      3082         0
      3085         0      3088         0      3091         0      3094         0
      3097         0      3100         0      3103         0      3106         0
      3109         0      3112         0      3115         0      3118         0
      3121         0      3124         0      3127         0      3130         0
      3133         0      3136         0      3139         0      3142         0
      3145         0      3148         0      3151         0      3154         0
      3157         0      3160         0      3163         0      3166         0
      3169         0      3172         0      3175         0      3178         0
      3181         0      3184         0      3187         0      3190         0
      3193         0      3196         0      3199         0      3202         0
      3205         0      3208         0      3211         0      3214         0
      3217         0      3220         0      3223         0      3226         0
      3229         0      3232         0      3235         0      3238         0
      3241         0      3244         0      3247         0      3250         0
      3253         0      3256         0      3259         0      3262         0
      3265         0      3268         0      3271         0      3274         0
      3277         0      3280         0      3283         0      3286         0
      3289         0      3292         0      3295         0      3298         0
      3301         0      3304         0      3307         0      3310         0
      3313         0      3316         0      3319         0      3322         0
      3325         0      3328         0      3331         0      3334         0
      3337         0      3340         0      3343         0      3346         0
      3349         0      3352         0      3355         0      3358         0
      3361         0      3364         0      3367         0      3370         0
      3373         0      3376         0      3379         0      3382         0
      3385         0      3388         0      3391         0      3394         0
      3397         0      3400         0      3403         0      3406         0
      3409         0      3412         0      3415         0      3418         0
      3421         0      3424         0      3427         0      3430         0
      3433         0      3436         0      3439         0      3442         0
      3445         0      3448         0      3451         0      3454         0
      3457         0      3460         0      3463         0      3466         0
      3469         0      3472         0      3475         0      3478         0
      3481         0      3484         0      3487         0      3490         0
      3493         0      3496         0      3499         0      3502         0
      3505         0      3508         0      3511         0      3514         0
      3517         0      3520         0      3523         0      3526         0
      3529         0      3532         0      3535         0      3538         0
      3541         0      3544         0      3547         0      3550         0
      3553         0      3556         0      3559         0      3562         0
      3565         0      3568         0      3571         0      3574         0
      3577         0      3580         0      3583         0      3586         0
      3589         0      3592         0      3595         0      3598         0
      3601         0      3604         0      3607         0      3610         0
      3613         0      3616         0      3619         0      3622         0
      3625         0      3628         0      3631         0      3634         0
      3637         0      3640         0      3643         0      3646         0
      3649         0      3652         0      3655         0      3658         0
      3661         0      3664         0      3667         0      3670         0
      3673         0      3676         0      3679         0      3682         0
      3685         0      3688         0      3691         0      3694         0
      3697         0      3700         0      3703         0      3706         0
      3709         0      3712         0      3715         0      3718         0
      3721         0      3724         0      3727         0      3730         0
      3733         0      3736         0      3739         0      3742         0
      3745         0      3748         0      3751         0      3754         0
      3757         0      3760         0      3763         0      3766         0
      3769         0      3772         0      3775         0      3778         0
      3781         0      3784         0      3787         0      3790         0
      3793         0      3796         0      3799         0      3802         0
      3805         0      3808         0      3811         0      3814         0
      3817         0      3820         0      3823         0      3826         0
      3829         0      3832         0      3835         0      3838         0
      3841         0      3844         0      3847         0      3850         0
      3853         0      3856         0      3859         0      3862         0
      3865         0      3868         0      3871         0      3874         0
      3877         0      3880         0      3883         0      3886         0
      3889         0      3892         0      3895         0      3898         0
      3901         0      3904         0      3907         0      3910         0
      3913         0      3916         0      3919         0      3922         0
      3925         0      3928         0      3931         0      3934         0
      3937         0      3940         0      3943         0      3946         0
      3949         0      3952         0      3955         0      3958         0
      3961         0      3964         0      3967         0      3970         0
      3973         0      3976         0      3979         0      3982         0
      3985         0      3988         0      3991         0      3994         0
      3997         0      4000         0      4003         0      4006         0
      4009         0      4012         0      4015         0      4018         0
      4021         0      4024         0      4027         0      4030         0
      4033         0      4036         0      4039         0      4042         0
      4045         0      4048         0      4051         0      4054         0
      4057         0      4060         0      4063         0      4066         0
      4069         0      4072         0      4075         0      4078         0
      4081         0      4084         0      4087         0      4090         0
      4093         0      4096         0      4099         0      4102         0
      4105         0      4108         0      4111         0      4114         0
      4117         0      4120         0      4123         0      4126         0
      4129         0      4132         0      4135         0      4138         0
      4141         0      4144         0      4147         0      4150         0
      4153         0      4156         0      4159         0      4162         0
      4165         0      4168         0      4171         0      4174         0
      4177         0      4180         0      4183         0      4186         0
      4189         0      4192         0      4195         0      4198         0
      4201         0      4204         0      4207         0      4210         0
      4213         0      4216         0      4219         0      4222         0
      4225         0      4228         0      4231         0      4234         0
      4237         0      4240         0      4243         0      4246         0
      4249         0      4252         0      4255         0      4258         0
      4261         0      4264         0      4267         0      4270         0
      4273         0      4276         0      4279         0      4282         0
      4285         0      4288         0      4291         0      4294         0
      4297         0      4300         0      4303         0      4306         0
      4309         0      4312         0      4315         0      4318         0
      4321         0      4324         0      4327         0      4330         0
      4333         0      4336         0      4339         0      4342         0
      4345         0      4348         0      4351         0      4354         0
      4357         0      4360         0      4363         0      4366         0
      4369         0      4372         0      4375         0      4378         0
      4381         0      4384         0      4387         0      4390         0
      4393         0      4396         0      4399         0      4402         0
      4405         0      4408         0      4411         0      4414         0
      4417         0      4420         0      4423         0      4426         0
      4429         0      4432         0      4435         0      4438         0
      4441         0      4444         0      4447         0      4450         0
      4453         0      4456         0      4459         0      4462         0
      4465         0      4468         0      4471         0      4474         0
      4477         0      4480         0      4483         0      4486         0
      4489         0      4492         0      4495         0      4498         0
      4501         0      4504         0      4507         0      4510         0
      4513         0      4516         0      4519         0      4522         0
      4525         0      4528         0      4531         0      4534         0
      4537         0      4540         0      4543         0      4546         0
      4549         0      4552         0      4555         0      4558         0
      4561         0      4564         0      4567         0      4570         0
      4573         0      4576         0      4579         0      4582         0
      4585         0      4588         0      4591         0      4594         0
      4597         0      4600         0      4603         0      4606         0
      4609         0      4612         0      4615         0      4618         0
      4621         0      4624         0      4627         0      4630         0
      4633         0      4636         0      4639         0      4642         0
      4645         0      4648         0      4651         0      4654         0
      4657         0      4660         0      4663         0      4666         0
      4669         0      4672         0      4675         0      4678         0
      4681         0      4684         0      4687         0      4690         0
      4693         0      4696         0      4699         0      4702         0
      4705         0      4708         0      4711         0      4714         0
      4717         0      4720         0      4723         0      4726         0
      4729         0      4732         0      4735         0      4738         0
      4741         0      4744         0      4747         0      4750         0
      4753         0      4756         0      4759         0      4762         0
      4765         0      4768         0      4771         0      4774         0
      4777         0      4780         0      4783         0      4786         0
      4789         0      4792         0      4795         0      4798         0
      4801         0      4804         0      4807         0      4810         0
      4813         0      4816         0      4819         0      4822         0
      4825         0      4828         0      4831         0      4834         0
      4837         0      4840         0      4843         0      4846         0
      4849         0      4852         0      4855         0      4858         0
      4861         0      4864         0      4867         0      4870         0
      4873         0      4876         0      4879         0      4882         0
      4885         0      4888         0      4891         0      4894         0
      4897         0      4900         0      4903         0      4906         0
      4909         0      4912         0      4915         0      4918         0
      4921         0      4924         0      4927         0      4930         0
      4933         0      4936         0      4939         0      4942         0
      4945         0      4948         0      4951         0      4954         0
      4957         0      4960         0      4963         0      4966         0
      4969         0      4972         0      4975         0      4978         0
      4981         0      4984         0      4987         0      4990         0
      4993         0      4996         0      4999         0      5002         0
      5005         0      5008         0      5011         0      5014         0
      5017         0      5020         0      5023         0      5026         0
      5029         0      5032         0      5035         0      5038         0
      5041         0      5044         0      5047         0      5050         0
      5053         0      5056         0      5059         0      5062         0
      5065         0      5068         0      5071         0      5074         0
      5077         0      5080         0      5083         0      5086         0
      5089         0      5092         0      5095         0      5098         0
      5101         0      5104         0      5107         0      5110         0
      5113         0      5116         0      5119         0      5122         0
      5125         0      5128         0      5131         0      5134         0
      5137         0      5140         0      5143         0      5146         0
      5149         0      5152         0      5155         0      5158         0
      5161         0      5164         0      5167         0      5170         0
      5173         0      5176         0

         0 !NNB

         0         0         0         0         0         0         0         0
         0         0         0         0         0         0         0         0
         0         0         0         0         0         0         0         0
         0         0         0         0         0         0         0         0
         0         0         0         0         0         0         0         0
         0         0         0         0         0         0         0         0
         0         0         0         0         0         0         0         0
         0         0         0         0         0         0         0         0
         0         0         0         0         0         0         0         0
         0         0         0         0         0         0         0         0
         0         0         0         0         0         0         0         0
         0         0         0         0         0         0         0         0
         0         0         0         0         0         0         0         0
         0         0         0         0         0         0         0         0
         0         0         0         0         0         0         0         0
         0         0         0         0         0         0         0         0
         0         0         0         0         0         0         0         0
         0         0         0         0         0         0         0         0
         0         0         0         0         0         0         0         0
         0         0         0         0         0         0         0         0
         0         0         0         0         0         0         0         0
         0         0         0         0         0         0         0         0
         0         0         0         0         0         0         0         0
         0         0         0         0         0         0         0         0
         0         0         0         0         0         0         0         0
         0         0         0         0         0         0         0         0
         0         0         0         0         0         0         0         0
         0         0         0         0         0         0         0         0
         0         0         0         0         0         0         0         0
         0         0         0         0         0         0         0         0
         0         0         0         0         0         0         0         0
         0         0         0         0         0         0         0         0
         0         0         0         0         0         0         0         0
         0         0         0         0         0         0         0         0
         0         0         0         0         0         0         0         0
         0         0         0         0         0         0         0         0
         0         0         0         0         0         0         0         0
         0         0         0         0         0         0         0         0
         0         0         0         0         0         0         0         0
         0         0         0         0         0         0         0         0
         0         0         0         0         0         0         0         0
         0         0         0         0         0         0         0         0
         0         0         0         0         0         0         0         0
         0         0         0         0         0         0         0         0
         0         0         0         0         0         0         0         0
         0         0         0         0         0         0         0         0
         0         0         0         0         0         0         0         0
         0         0         0         0         0         0         0         0
         0         0         0         0         0         0         0         0
         0         0         0         0         0         0         0         0
         0         0         0         0         0         0         0         0
         0         0         0         0         0         0         0         0
         0         0         0         0         0         0         0         0
         0         0         0         0         0         0         0         0
         0         0         0         0         0         0         0         0
         0         0         0         0         0         0         0         0
         0         0         0         0         0         0         0         0
         0         0         0         0         0         0         0         0
         0         0         0         0         0         0         0         0
         0         0         0         0         0         0         0         0
         0         0         0         0         0         0         0         0
         0         0         0         0         0         0         0         0
         0         0         0         0         0         0         0         0
         0         0         0         0         0         0         0         0
         0         0         0         0         0         0         0         0
         0         0         0         0         0         0         0         0
         0         0         0         0         0         0         0         0
         0         0         0         0         0         0         0         0
         0         0         0         0         0         0         0         0
         0         0         0         0         0         0         0         0
         0         0         0         0         0         0         0         0
         0         0         0         0         0         0         0         0
         0         0         0         0         0         0         0         0
         0         0         0         0         0         0         0         0
         0         0         0         0         0         0         0         0
         0         0         0         0         0         0         0         0
         0         0         0         0         0         0         0         0
         0         0         0         0         0         0         0         0
         0         0         0         0         0         0         0         0
         0         0         0         0         0         0         0         0
         0         0         0         0         0         0         0         0
         0         0         0         0         0         0         0         0
         0         0         0         0         0         0         0         0
         0         0         0         0         0         0         0         0
         0         0         0         0         0         0         0         0
         0         0         0         0         0         0         0         0
         0         0         0         0         0         0         0         0
         0         0         0         0         0         0         0         0
         0         0         0         0         0         0         0         0
         0         0         0         0         0         0         0         0
         0         0         0         0         0         0         0         0
         0         0         0         0         0         0         0         0
         0         0         0         0         0         0         0         0
         0         0         0         0         0         0         0         0
         0         0         0         0         0         0         0         0
         0         0         0         0         0         0         0         0
         0         0         0         0         0         0         0         0
         0         0         0         0         0         0         0         0
         0         0         0         0         0         0         0         0
         0         0         0         0         0         0         0         0
         0         0         0         0         0         0         0         0
         0         0         0         0         0         0         0         0
         0         0         0         0         0         0         0         0
         0         0         0         0         0         0         0         0
         0         0         0         0         0         0         0         0
         0         0         0         0         0         0         0         0
         0         0         0         0         0         0         0         0
         0         0         0         0         0         0         0         0
         0         0         0         0         0         0         0         0
         0         0         0         0         0         0         0         0
         0         0         0         0         0         0         0         0
         0         0         0         0         0         0         0         0
         0         0         0         0         0         0         0         0
         0         0         0         0         0         0         0         0
         0         0         0         0         0         0         0         0
         0         0         0         0         0         0         0         0
         0         0         0         0         0         0         0         0
         0         0         0         0         0         0         0         0
         0         0         0         0         0         0         0         0
         0         0         0         0         0         0         0         0
         0         0         0         0         0         0         0         0
         0         0         0         0         0         0         0         0
         0         0         0         0         0         0         0         0
         0         0         0         0         0         0         0         0
         0         0         0         0         0         0         0         0
         0         0         0         0         0         0         0         0
         0         0         0         0         0         0         0         0
         0         0         0         0         0         0         0         0
         0         0         0         0         0         0         0         0
         0         0         0         0         0         0         0         0
         0         0         0         0         0         0         0         0
         0         0         0         0         0         0         0         0
         0         0         0         0         0         0         0         0
         0         0         0         0         0         0         0         0
         0         0         0         0         0         0         0         0
         0         0         0         0         0         0         0         0
         0         0         0         0         0         0         0         0
         0         0         0         0         0         0         0         0
         0         0         0         0         0         0         0         0
         0         0         0         0         0         0         0         0
         0         0         0         0         0         0         0         0
         0         0         0         0         0         0         0         0
         0         0         0         0         0         0         0         0
         0         0         0         0         0         0         0         0
         0         0         0         0         0         0         0         0
         0         0         0         0         0         0         0         0
         0         0         0         0         0         0         0         0
         0         0         0         0         0         0         0         0
         0         0         0         0         0         0         0         0
         0         0         0         0         0         0         0         0
         0         0         0         0         0         0         0         0
         0         0         0         0         0         0         0         0
         0         0         0         0         0         0         0         0
         0         0         0         0         0         0         0         0
         0         0         0         0         0         0         0         0
         0         0         0         0         0         0         0         0
         0         0         0         0         0         0         0         0
         0         0         0         0         0         0         0         0
         0         0         0         0         0         0         0         0
         0         0         0         0         0         0         0         0
         0         0         0         0         0         0         0         0
         0         0         0         0         0         0         0         0
         0         0         0         0         0         0         0         0
         0         0         0         0         0         0         0         0
         0         0         0         0         0         0         0         0
         0         0         0         0         0         0         0         0
         0         0         0         0         0         0         0         0
         0         0         0         0         0         0         0         0
         0         0         0         0         0         0         0         0
         0         0         0         0         0         0         0         0
         0         0         0         0         0         0         0         0
         0         0         0         0         0         0         0         0
         0         0         0         0         0         0         0         0
         0         0         0         0         0         0         0         0
         0         0         0         0         0         0         0         0
         0         0         0         0         0         0         0         0
         0         0         0         0         0         0         0         0
         0         0         0         0         0         0         0         0
         0         0         0         0         0         0         0         0
         0         0         0         0         0         0         0         0
         0         0         0         0         0         0         0         0
         0         0         0         0         0         0         0         0
         0         0         0         0         0         0         0         0
         0         0         0         0         0         0         0         0
         0         0         0         0         0         0         0         0
         0         0         0         0         0         0         0         0
         0         0         0         0         0         0         0         0
         0         0         0         0         0         0         0         0
         0         0         0         0         0         0         0         0
         0         0         0         0         0         0         0         0
         0         0         0         0         0         0         0         0
         0         0         0         0         0         0         0         0
         0         0         0         0         0         0         0         0
         0         0         0         0         0         0         0         0
         0         0         0         0         0         0         0         0
         0         0         0         0         0         0         0         0
         0         0         0         0         0         0         0         0
         0         0         0         0         0         0         0         0
         0         0         0         0         0         0         0         0
         0         0         0         0         0         0         0         0
         0         0         0         0         0         0         0         0
         0         0         0         0         0         0         0         0
         0         0         0         0         0         0         0         0
         0         0         0         0         0         0         0         0
         0         0         0         0         0         0         0         0
         0         0         0         0         0         0         0         0
         0         0         0         0         0         0         0         0
         0         0         0         0         0         0         0         0
         0         0         0         0         0         0         0         0
         0         0         0         0         0         0         0         0
         0         0         0         0         0         0         0         0
         0         0         0         0         0         0         0         0
         0         0         0         0         0         0         0         0
         0         0         0         0         0         0         0         0
         0         0         0         0         0         0         0         0
         0         0         0         0         0         0         0         0
         0         0         0         0         0         0         0         0
         0         0         0         0         0         0         0         0
         0         0         0         0         0         0         0         0
         0         0         0         0         0         0         0         0
         0         0         0         0         0         0         0         0
         0         0         0         0         0         0         0         0
         0         0         0         0         0         0         0         0
         0         0         0         0         0         0         0         0
         0         0         0         0         0         0         0         0
         0         0         0         0         0         0         0         0
         0         0         0         0         0         0         0         0
         0         0         0         0         0         0         0         0
         0         0         0         0         0         0         0         0
         0         0         0         0         0         0         0         0
         0         0         0         0         0         0         0         0
         0         0         0         0         0         0         0         0
         0         0         0         0         0         0         0         0
         0         0         0         0         0         0         0         0
         0         0         0         0         0         0         0         0
         0         0         0         0         0         0         0         0
         0         0         0         0         0         0         0         0
         0         0         0         0         0         0         0         0
         0         0         0         0         0         0         0         0
         0         0         0         0         0         0         0         0
         0         0         0         0         0         0         0         0
         0         0         0         0         0         0         0         0
         0         0         0         0         0         0         0         0
         0         0         0         0         0         0         0         0
         0         0         0         0         0         0         0         0
         0         0         0         0         0         0         0         0
         0         0         0         0         0         0         0         0
         0         0         0         0         0         0         0         0
         0         0         0         0         0         0         0         0
         0         0         0         0         0         0         0         0
         0         0         0         0         0         0         0         0
         0         0         0         0         0         0         0         0
         0         0         0         0         0         0         0         0
         0         0         0         0         0         0         0         0
         0         0         0         0         0         0         0         0
         0         0         0         0         0         0         0         0
         0         0         0         0         0         0         0         0
         0         0         0         0         0         0         0         0
         0         0         0         0         0         0         0         0
         0         0         0         0         0         0         0         0
         0         0         0         0         0         0         0         0
         0         0         0         0         0         0         0         0
         0         0         0         0         0         0         0         0
         0         0         0         0         0         0         0         0
         0         0         0         0         0         0         0         0
         0         0         0         0         0         0         0         0
         0         0         0         0         0         0         0         0
         0         0         0         0         0         0         0         0
         0         0         0         0         0         0         0         0
         0         0         0         0         0         0         0         0
         0         0         0         0         0         0         0         0
         0         0         0         0         0         0         0         0
         0         0         0         0         0         0         0         0
         0         0         0         0         0         0         0         0
         0         0         0         0         0         0         0         0
         0         0         0         0         0         0         0         0
         0         0         0         0         0         0         0         0
         0         0         0         0         0         0         0         0
         0         0         0         0         0         0         0         0
         0         0         0         0         0         0         0         0
         0         0         0         0         0         0         0         0
         0         0         0         0         0         0         0         0
         0         0         0         0         0         0         0         0
         0         0         0         0         0         0         0         0
         0         0         0         0         0         0         0         0
         0         0         0         0         0         0         0         0
         0         0         0         0         0         0         0         0
         0         0         0         0         0         0         0         0
         0         0         0         0         0         0         0         0
         0         0         0         0         0         0         0         0
         0         0         0         0         0         0         0         0
         0         0         0         0         0         0         0         0
         0         0         0         0         0         0         0         0
         0         0         0         0         0         0         0         0
         0         0         0         0         0         0         0         0
         0         0         0         0         0         0         0         0
         0         0         0         0         0         0         0         0
         0         0         0         0         0         0         0         0
         0         0         0         0         0         0         0         0
         0         0         0         0         0         0         0         0
         0         0         0         0         0         0         0         0
         0         0         0         0         0         0         0         0
         0         0         0         0         0         0         0         0
         0         0         0         0         0         0         0         0
         0         0         0         0         0         0         0         0
         0         0         0         0         0         0         0         0
         0         0         0         0         0         0         0         0
         0         0         0         0         0         0         0         0
         0         0         0         0         0         0         0         0
         0         0         0         0         0         0         0         0
         0         0         0         0         0         0         0         0
         0         0         0         0         0         0         0         0
         0         0         0         0         0         0         0         0
         0         0         0         0         0         0         0         0
         0         0         0         0         0         0         0         0
         0         0         0         0         0         0         0         0
         0         0         0         0         0         0         0         0
         0         0         0         0         0         0         0         0
         0         0         0         0         0         0         0         0
         0         0         0         0         0         0         0         0
         0         0         0         0         0         0         0         0
         0         0         0         0         0         0         0         0
         0         0         0         0         0         0         0         0
         0         0         0         0         0         0         0         0
         0         0         0         0         0         0         0         0
         0         0         0         0         0         0         0         0
         0         0         0         0         0         0         0         0
         0         0         0         0         0         0         0         0
         0         0         0         0         0         0         0         0
         0         0         0         0         0         0         0         0
         0         0         0         0         0         0         0         0
         0         0         0         0         0         0         0         0
         0         0         0         0         0         0         0         0
         0         0         0         0         0         0         0         0
         0         0         0         0         0         0         0         0
         0         0         0         0         0         0         0         0
         0         0         0         0         0         0         0         0
         0         0         0         0         0         0         0         0
         0         0         0         0         0         0         0         0
         0         0         0         0         0         0         0         0
         0         0         0         0         0         0         0         0
         0         0         0         0         0         0         0         0
         0         0         0         0         0         0         0         0
         0         0         0         0         0         0         0         0
         0         0         0         0         0         0         0         0
         0         0         0         0         0         0         0         0
         0         0         0         0         0         0         0         0
         0         0         0         0         0         0         0         0
         0         0         0         0         0         0         0         0
         0         0         0         0         0         0         0         0
         0         0         0         0         0         0         0         0
         0         0         0         0         0         0         0         0
         0         0         0         0         0         0         0         0
         0         0         0         0         0         0         0         0
         0         0         0         0         0         0         0         0
         0         0         0         0         0         0         0         0
         0         0         0         0         0         0         0         0
         0         0         0         0         0         0         0         0
         0         0         0         0         0         0         0         0
         0         0         0         0         0         0         0         0
         0         0         0         0         0         0         0         0
         0         0         0         0         0         0         0         0
         0         0         0         0         0         0         0         0
         0         0         0         0         0         0         0         0
         0         0         0         0         0         0         0         0
         0         0         0         0         0         0         0         0
         0         0         0         0         0         0         0         0
         0         0         0         0         0         0         0         0
         0         0         0         0         0         0         0         0
         0         0         0         0         0         0         0         0
         0         0         0         0         0         0         0         0
         0         0         0         0         0         0         0         0
         0         0         0         0         0         0         0         0
         0         0         0         0         0         0         0         0
         0         0         0         0         0         0         0         0
         0         0         0         0         0         0         0         0
         0         0         0         0         0         0         0         0
         0         0         0         0         0         0         0         0
         0         0         0         0         0         0         0         0
         0         0         0         0         0         0         0         0
         0         0         0         0         0         0         0         0
         0         0         0         0         0         0         0         0
         0         0         0         0         0         0         0         0
         0         0         0         0         0         0         0         0
         0         0         0         0         0         0         0         0
         0         0         0         0         0         0         0         0
         0         0         0         0         0         0         0         0
         0         0         0         0         0         0         0         0
         0         0         0         0         0         0         0         0
         0         0         0         0         0         0         0         0
         0         0         0         0         0         0         0         0
         0         0         0         0         0         0         0         0
         0         0         0         0         0         0         0         0
         0         0         0         0         0         0         0         0
         0         0         0         0         0         0         0         0
         0         0         0         0         0         0         0         0
         0         0         0         0         0         0         0         0
         0         0         0         0         0         0         0         0
         0         0         0         0         0         0         0         0
         0         0         0         0         0         0         0         0
         0         0         0         0         0         0         0         0
         0         0         0         0         0         0         0         0
         0         0         0         0         0         0         0         0
         0         0         0         0         0         0         0         0
         0         0         0         0         0         0         0         0
         0         0         0         0         0         0         0         0
         0         0         0         0         0         0         0         0
         0         0         0         0         0         0         0         0
         0         0         0         0         0         0         0         0
         0         0         0         0         0         0         0         0
         0         0         0         0         0         0         0         0
         0         0         0         0         0         0         0         0
         0         0         0         0         0         0         0         0
         0         0         0         0         0         0         0         0
         0         0         0         0         0         0         0         0
         0         0         0         0         0         0         0         0
         0         0         0         0         0         0         0         0
         0         0         0         0         0         0         0         0
         0         0         0         0         0         0         0         0
         0         0         0         0         0         0         0         0
         0         0         0         0         0         0         0         0
         0         0         0         0         0         0         0         0
         0         0         0         0         0         0         0         0
         0         0         0         0         0         0         0         0
         0         0         0         0         0         0         0         0
         0         0         0         0         0         0         0         0
         0         0         0         0         0         0         0         0
         0         0         0         0         0         0         0         0
         0         0         0         0         0         0         0         0
         0         0         0         0         0         0         0         0
         0         0         0         0         0         0         0         0
         0         0         0         0         0         0         0         0
         0         0         0         0         0         0         0         0
         0         0         0         0         0         0         0         0
         0         0         0         0         0         0         0         0
         0         0         0         0         0         0         0         0
         0         0         0         0         0         0         0         0
         0         0         0         0         0         0         0         0
         0         0         0         0         0         0         0         0
         0         0         0         0         0         0         0         0
         0         0         0         0         0         0         0         0
         0         0         0         0         0         0         0         0
         0         0         0         0         0         0         0         0
         0         0         0         0         0         0         0         0
         0         0         0         0         0         0         0         0
         0         0         0         0         0         0         0         0
         0         0         0         0         0         0         0         0
         0         0         0         0         0         0         0         0
         0         0         0         0         0         0         0         0
         0         0         0         0         0         0         0         0
         0         0         0         0         0         0         0         0
         0         0         0         0         0         0         0         0
         0         0         0         0         0         0         0         0
         0         0         0         0         0         0         0         0
         0         0         0         0         0         0         0         0
         0         0         0         0         0         0         0         0
         0         0         0         0         0         0         0         0
         0         0         0         0         0         0         0         0
         0         0         0         0         0         0         0         0
         0         0         0         0         0         0         0         0
         0         0         0         0         0         0         0         0
         0         0         0         0         0         0         0         0
         0         0         0         0         0         0         0         0
         0         0         0         0         0         0         0         0
         0         0         0         0         0         0         0         0
         0         0         0         0         0         0         0         0
         0         0         0         0         0         0         0         0
         0         0         0         0         0         0         0         0
         0         0         0         0         0         0         0         0
         0         0         0         0         0         0         0         0
         0         0         0         0         0         0         0         0
         0         0         0         0         0         0         0         0
         0         0         0         0         0         0         0         0
         0         0         0         0         0         0         0         0
         0         0         0         0         0         0         0         0
         0         0         0         0         0         0         0         0
         0         0         0         0         0         0         0         0
         0         0         0         0         0         0         0         0
         0         0         0         0         0         0         0         0
         0         0         0         0         0         0         0         0
         0         0         0         0         0         0         0         0
         0         0         0         0         0         0         0         0
         0         0         0         0         0         0         0         0
         0         0         0         0         0         0         0         0
         0         0         0         0         0         0         0         0
         0         0         0         0         0         0         0         0
         0         0         0         0         0         0         0         0
         0         0         0         0         0         0         0         0
         0         0         0         0         0         0         0         0
         0         0         0         0         0         0         0         0
         0         0         0         0         0         0         0         0
         0         0         0         0         0         0         0         0
         0         0         0         0         0         0         0         0
         0         0         0         0         0         0         0         0
         0         0         0         0         0         0         0         0
         0         0         0         0         0         0         0         0
         0         0         0         0         0         0         0         0
         0         0         0         0         0         0         0         0
         0         0         0         0         0         0         0         0
         0         0         0         0         0         0         0         0
         0         0         0         0         0         0         0         0
         0         0         0         0         0         0         0         0
         0         0         0         0         0         0         0         0
         0         0         0         0         0         0         0         0
         0         0         0         0         0         0         0         0
         0         0         0         0         0         0         0         0
         0         0         0         0         0         0         0         0
         0         0         0         0         0         0         0         0
         0         0         0         0         0         0         0         0
         0         0         0         0         0         0         0         0
         0         0         0         0         0         0         0         0
         0         0         0         0         0         0         0         0
         0         0         0         0         0         0         0         0
         0         0         0         0         0         0         0         0
         0         0         0         0         0         0         0         0
         0         0         0         0         0         0         0         0
         0         0         0         0         0         0         0         0
         0         0         0         0         0         0         0         0
         0         0         0         0         0         0         0         0
         0         0         0         0         0         0         0         0
         0         0         0         0         0         0         0         0
         0         0         0         0         0         0         0         0
         0         0         0         0         0         0         0         0
         0         0         0         0         0         0         0         0
         0         0         0         0         0         0         0         0
         0         0         0         0         0         0         0         0
         0         0         0         0         0         0         0         0
         0         0         0         0         0         0         0         0
         0         0         0         0         0         0         0         0
         0         0         0         0         0         0         0         0
         0         0         0         0         0         0         0         0
         0         0         0         0         0         0         0         0
         0         0         0         0         0         0         0         0
         0         0         0         0         0         0         0         0
         0         0         0         0         0         0         0         0
         0         0         0         0         0         0         0         0
         0         0         0         0         0         0         0         0
         0         0         0         0         0         0         0         0
         0         0         0         0         0         0         0         0
         0         0         0         0         0         0         0         0
         0         0         0         0         0         0         0         0
         0         0         0         0         0         0         0         0
         0         0         0         0         0         0         0         0
         0         0         0         0         0         0         0         0
         0         0         0         0         0         0         0         0
         0         0         0         0         0         0         0         0
         0         0         0         0         0         0         0         0
         0         0         0         0         0         0         0         0
         0         0         0         0         0         0         0         0
         0         0         0         0         0         0         0         0
         0         0         0         0         0         0         0         0
         0         0         0         0         0         0         0         0
         0         0         0         0         0         0         0         0
         0         0         0         0         0         0         0         0
         0         0         0         0         0         0         0         0
         0         0         0         0         0         0         0         0
         0         0         0         0         0         0         0         0
         0         0         0         0         0         0         0         0
         0         0         0         0         0         0         0         0
         0         0         0         0         0         0         0         0
         0         0         0         0         0         0         0         0
         0         0         0         0         0         0         0         0
         0         0         0         0         0         0         0         0
         0         0         0         0         0         0         0         0
         0         0         0         0         0         0         0         0
         0         0         0         0         0         0         0         0
         0         0         0         0         0         0         0         0
         0         0         0         0         0         0         0         0
         0         0         0         0         0         0         0         0
         0         0         0         0         0         0         0         0
         0         0         0         0         0         0         0         0
         0         0         0         0         0         0         0         0
         0         0         0         0         0         0         0         0
         0         0         0         0         0         0         0         0
         0         0         0         0         0         0         0         0
         0         0         0         0         0         0         0         0
         0         0         0         0         0         0         0         0
         0         0         0         0         0         0         0         0
         0         0         0         0         0         0         0         0
         0         0         0         0         0         0         0         0
         0         0         0         0         0         0         0         0
         0         0         0         0         0         0         0         0
         0         0         0         0         0         0         0         0
         0         0         0         0         0         0         0         0
         0         0         0         0         0         0         0         0
         0         0         0         0         0         0         0         0
         0         0         0         0         0         0         0         0
         0         0         0         0         0         0         0         0
         0         0         0         0         0         0         0         0
         0         0         0         0         0         0         0         0
         0         0         0         0         0         0         0         0
         0         0         0         0         0         0         0         0
         0         0         0         0         0         0         0         0
         0         0         0         0         0         0         0         0
         0         0         0         0         0         0         0         0
         0         0         0         0         0         0         0         0
         0         0         0         0         0         0         0         0
         0         0         0         0         0         0         0         0
         0         0         0         0         0         0         0         0
         0         0         0         0         0         0         0         0
         0         0         0         0         0         0         0         0
         0         0         0         0         0         0         0         0
         0         0         0         0         0         0         0         0
         0         0         0         0         0         0         0         0
         0         0         0         0         0         0         0         0
         0         0         0         0         0         0         0         0
         0         0         0         0         0         0         0         0
         0         0         0         0         0         0         0         0
         0         0         0         0         0         0         0         0
         0         0         0         0         0         0         0         0
         0         0         0         0         0         0         0         0
         0         0         0         0         0         0         0         0
         0         0         0         0         0         0         0         0
         0         0         0         0         0         0         0         0
         0         0         0         0         0         0         0         0
         0         0         0         0         0         0         0         0
         0         0         0         0         0         0         0         0
         0         0         0         0         0         0         0         0
         0         0         0         0         0         0         0         0
         0         0         0         0         0         0         0         0
         0         0         0         0         0         0         0         0
         0         0         0         0         0         0         0         0
         0         0         0         0         0         0         0         0
         0         0         0         0         0         0         0         0
         0         0         0         0         0         0         0         0
         0         0         0         0         0         0         0         0
         0         0         0         0         0         0         0         0
         0         0         0         0         0         0         0         0
         0         0         0         0         0         0         0         0
         0         0         0         0         0         0         0         0
         0         0         0         0         0         0         0         0
         0         0         0         0         0         0         0         0
         0         0         0         0         0         0         0         0
         0         0         0         0         0         0         0         0
         0         0         0         0         0         0         0         0
         0         0         0         0         0         0         0         0
         0         0         0         0         0         0         0         0
         0         0         0         0         0         0         0         0
         0         0         0         0         0         0         0         0
         0         0         0         0         0         0         0         0
         0         0         0         0         0         0         0         0
         0         0         0         0         0         0         0         0
         0         0         0         0         0         0         0         0
         0         0         0         0         0         0         0         0
         0         0         0         0         0         0         0         0
         0         0         0         0         0         0         0         0
         0         0         0         0         0         0         0         0
         0         0

      1726         0 !NGRP NST2
         0         1         0         3         1         0         6         1         0
         9         1         0        12         1         0        15         1         0
        18         1         0        21         1         0        24         1         0
        27         1         0        30         1         0        33         1         0
        36         1         0        39         1         0        42         1         0
        45         1         0        48         1         0        51         1         0
        54         1         0        57         1         0        60         1         0
        63         1         0        66         1         0        69         1         0
        72         1         0        75         1         0        78         1         0
        81         1         0        84         1         0        87         1         0
        90         1         0        93         1         0        96         1         0
        99         1         0       102         1         0       105         1         0
       108         1         0       111         1         0       114         1         0
       117         1         0       120         1         0       123         1         0
       126         1         0       129         1         0       132         1         0
       135         1         0       138         1         0       141         1         0
       144         1         0       147         1         0       150         1         0
       153         1         0       156         1         0       159         1         0
       162         1         0       165         1         0       168         1         0
       171         1         0       174         1         0       177         1         0
       180         1         0       183         1         0       186         1         0
       189         1         0       192         1         0       195         1         0
       198         1         0       201         1         0       204         1         0
       207         1         0       210         1         0       213         1         0
       216         1         0       219         1         0       222         1         0
       225         1         0       228         1         0       231         1         0
       234         1         0       237         1         0       240         1         0
       243         1         0       246         1         0       249         1         0
       252         1         0       255         1         0       258         1         0
       261         1         0       264         1         0       267         1         0
       270         1         0       273         1         0       276         1         0
       279         1         0       282         1         0       285         1         0
       288         1         0       291         1         0       294         1         0
       297         1         0       300         1         0       303         1         0
       306         1         0       309         1         0       312         1         0
       315         1         0       318         1         0       321         1         0
       324         1         0       327         1         0       330         1         0
       333         1         0       336         1         0       339         1         0
       342         1         0       345         1         0       348         1         0
       351         1         0       354         1         0       357         1         0
       360         1         0       363         1         0       366         1         0
       369         1         0       372         1         0       375         1         0
       378         1         0       381         1         0       384         1         0
       387         1         0       390         1         0       393         1         0
       396         1         0       399         1         0       402         1         0
       405         1         0       408         1         0       411         1         0
       414         1         0       417         1         0       420         1         0
       423         1         0       426         1         0       429         1         0
       432         1         0       435         1         0       438         1         0
       441         1         0       444         1         0       447         1         0
       450         1         0       453         1         0       456         1         0
       459         1         0       462         1         0       465         1         0
       468         1         0       471         1         0       474         1         0
       477         1         0       480         1         0       483         1         0
       486         1         0       489         1         0       492         1         0
       495         1         0       498         1         0       501         1         0
       504         1         0       507         1         0       510         1         0
       513         1         0       516         1         0       519         1         0
       522         1         0       525         1         0       528         1         0
       531         1         0       534         1         0       537         1         0
       540         1         0       543         1         0       546         1         0
       549         1         0       552         1         0       555         1         0
       558         1         0       561         1         0       564         1         0
       567         1         0       570         1         0       573         1         0
       576         1         0       579         1         0       582         1         0
       585         1         0       588         1         0       591         1         0
       594         1         0       597         1         0       600         1         0
       603         1         0       606         1         0       609         1         0
       612         1         0       615         1         0       618         1         0
       621         1         0       624         1         0       627         1         0
       630         1         0       633         1         0       636         1         0
       639         1         0       642         1         0       645         1         0
       648         1         0       651         1         0       654         1         0
       657         1         0       660         1         0       663         1         0
       666         1         0       669         1         0       672         1         0
       675         1         0       678         1         0       681         1         0
       684         1         0       687         1         0       690         1         0
       693         1         0       696         1         0       699         1         0
       702         1         0       705         1         0       708         1         0
       711         1         0       714         1         0       717         1         0
       720         1         0       723         1         0       726         1         0
       729         1         0       732         1         0       735         1         0
       738         1         0       741         1         0       744         1         0
       747         1         0       750         1         0       753         1         0
       756         1         0       759         1         0       762         1         0
       765         1         0       768         1         0       771         1         0
       774         1         0       777         1         0       780         1         0
       783         1         0       786         1         0       789         1         0
       792         1         0       795         1         0       798         1         0
       801         1         0       804         1         0       807         1         0
       810         1         0       813         1         0       816         1         0
       819         1         0       822         1         0       825         1         0
       828         1         0       831         1         0       834         1         0
       837         1         0       840         1         0       843         1         0
       846         1         0       849         1         0       852         1         0
       855         1         0       858         1         0       861         1         0
       864         1         0       867         1         0       870         1         0
       873         1         0       876         1         0       879         1         0
       882         1         0       885         1         0       888         1         0
       891         1         0       894         1         0       897         1         0
       900         1         0       903         1         0       906         1         0
       909         1         0       912         1         0       915         1         0
       918         1         0       921         1         0       924         1         0
       927         1         0       930         1         0       933         1         0
       936         1         0       939         1         0       942         1         0
       945         1         0       948         1         0       951         1         0
       954         1         0       957         1         0       960         1         0
       963         1         0       966         1         0       969         1         0
       972         1         0       975         1         0       978         1         0
       981         1         0       984         1         0       987         1         0
       990         1         0       993         1         0       996         1         0
       999         1         0      1002         1         0      1005         1         0
      1008         1         0      1011         1         0      1014         1         0
      1017         1         0      1020         1         0      1023         1         0
      1026         1         0      1029         1         0      1032         1         0
      1035         1         0      1038         1         0      1041         1         0
      1044         1         0      1047         1         0      1050         1         0
      1053         1         0      1056         1         0      1059         1         0
      1062         1         0      1065         1         0      1068         1         0
      1071         1         0      1074         1         0      1077         1         0
      1080         1         0      1083         1         0      1086         1         0
      1089         1         0      1092         1         0      1095         1         0
      1098         1         0      1101         1         0      1104         1         0
      1107         1         0      1110         1         0      1113         1         0
      1116         1         0      1119         1         0      1122         1         0
      1125         1         0      1128         1         0      1131         1         0
      1134         1         0      1137         1         0      1140         1         0
      1143         1         0      1146         1         0      1149         1         0
      1152         1         0      1155         1         0      1158         1         0
      1161         1         0      1164         1         0      1167         1         0
      1170         1         0      1173         1         0      1176         1         0
      1179         1         0      1182         1         0      1185         1         0
      1188         1         0      1191         1         0      1194         1         0
      1197         1         0      1200         1         0      1203         1         0
      1206         1         0      1209         1         0      1212         1         0
      1215         1         0      1218         1         0      1221         1         0
      1224         1         0      1227         1         0      1230         1         0
      1233         1         0      1236         1         0      1239         1         0
      1242         1         0      1245         1         0      1248         1         0
      1251         1         0      1254         1         0      1257         1         0
      1260         1         0      1263         1         0      1266         1         0
      1269         1         0      1272         1         0      1275         1         0
      1278         1         0      1281         1         0      1284         1         0
      1287         1         0      1290         1         0      1293         1         0
      1296         1         0      1299         1         0      1302         1         0
      1305         1         0      1308         1         0      1311         1         0
      1314         1         0      1317         1         0      1320         1         0
      1323         1         0      1326         1         0      1329         1         0
      1332         1         0      1335         1         0      1338         1         0
      1341         1         0      1344         1         0      1347         1         0
      1350         1         0      1353         1         0      1356         1         0
      1359         1         0      1362         1         0      1365         1         0
      1368         1         0      1371         1         0      1374         1         0
      1377         1         0      1380         1         0      1383         1         0
      1386         1         0      1389         1         0      1392         1         0
      1395         1         0      1398         1         0      1401         1         0
      1404         1         0      1407         1         0      1410         1         0
      1413         1         0      1416         1         0      1419         1         0
      1422         1         0      1425         1         0      1428         1         0
      1431         1         0      1434         1         0      1437         1         0
      1440         1         0      1443         1         0      1446         1         0
      1449         1         0      1452         1         0      1455         1         0
      1458         1         0      1461         1         0      1464         1         0
      1467         1         0      1470         1         0      1473         1         0
      1476         1         0      1479         1         0      1482         1         0
      1485         1         0      1488         1         0      1491         1         0
      1494         1         0      1497         1         0      1500         1         0
      1503         1         0      1506         1         0      1509         1         0
      1512         1         0      1515         1         0      1518         1         0
      1521         1         0      1524         1         0      1527         1         0
      1530         1         0      1533         1         0      1536         1         0
      1539         1         0      1542         1         0      1545         1         0
      1548         1         0      1551         1         0      1554         1         0
      1557         1         0      1560         1         0      1563         1         0
      1566         1         0      1569         1         0      1572         1         0
      1575         1         0      1578         1         0      1581         1         0
      1584         1         0      1587         1         0      1590         1         0
      1593         1         0      1596         1         0      1599         1         0
      1602         1         0      1605         1         0      1608         1         0
      1611         1         0      1614         1         0      1617         1         0
      1620         1         0      1623         1         0      1626         1         0
      1629         1         0      1632         1         0      1635         1         0
      1638         1         0      1641         1         0      1644         1         0
      1647         1         0      1650         1         0      1653         1         0
      1656         1         0      1659         1         0      1662         1         0
      1665         1         0      1668         1         0      1671         1         0
      1674         1         0      1677         1         0      1680         1         0
      1683         1         0      1686         1         0      1689         1         0
      1692         1         0      1695         1         0      1698         1         0
      1701         1         0      1704         1         0      1707         1         0
      1710         1         0      1713         1         0      1716         1         0
      1719         1         0      1722         1         0      1725         1         0
      1728         1         0      1731         1         0      1734         1         0
      1737         1         0      1740         1         0      1743         1         0
      1746         1         0      1749         1         0      1752         1         0
      1755         1         0      1758         1         0      1761         1         0
      1764         1         0      1767         1         0      1770         1         0
      1773         1         0      1776         1         0      1779         1         0
      1782         1         0      1785         1         0      1788         1         0
      1791         1         0      1794         1         0      1797         1         0
      1800         1         0      1803         1         0      1806         1         0
      1809         1         0      1812         1         0      1815         1         0
      1818         1         0      1821         1         0      1824         1         0
      1827         1         0      1830         1         0      1833         1         0
      1836         1         0      1839         1         0      1842         1         0
      1845         1         0      1848         1         0      1851         1         0
      1854         1         0      1857         1         0      1860         1         0
      1863         1         0      1866         1         0      1869         1         0
      1872         1         0      1875         1         0      1878         1         0
      1881         1         0      1884         1         0      1887         1         0
      1890         1         0      1893         1         0      1896         1         0
      1899         1         0      1902         1         0      1905         1         0
      1908         1         0      1911         1         0      1914         1         0
      1917         1         0      1920         1         0      1923         1         0
      1926         1         0      1929         1         0      1932         1         0
      1935         1         0      1938         1         0      1941         1         0
      1944         1         0      1947         1         0      1950         1         0
      1953         1         0      1956         1         0      1959         1         0
      1962         1         0      1965         1         0      1968         1         0
      1971         1         0      1974         1         0      1977         1         0
      1980         1         0      1983         1         0      1986         1         0
      1989         1         0      1992         1         0      1995         1         0
      1998         1         0      2001         1         0      2004         1         0
      2007         1         0      2010         1         0      2013         1         0
      2016         1         0      2019         1         0      2022         1         0
      2025         1         0      2028         1         0      2031         1         0
      2034         1         0      2037         1         0      2040         1         0
      2043         1         0      2046         1         0      2049         1         0
      2052         1         0      2055         1         0      2058         1         0
      2061         1         0      2064         1         0      2067         1         0
      2070         1         0      2073         1         0      2076         1         0
      2079         1         0      2082         1         0      2085         1         0
      2088         1         0      2091         1         0      2094         1         0
      2097         1         0      2100         1         0      2103         1         0
      2106         1         0      2109         1         0      2112         1         0
      2115         1         0      2118         1         0      2121         1         0
      2124         1         0      2127         1         0      2130         1         0
      2133         1         0      2136         1         0      2139         1         0
      2142         1         0      2145         1         0      2148         1         0
      2151         1         0      2154         1         0      2157         1         0
      2160         1         0      2163         1         0      2166         1         0
      2169         1         0      2172         1         0      2175         1         0
      2178         1         0      2181         1         0      2184         1         0
      2187         1         0      2190         1         0      2193         1         0
      2196         1         0      2199         1         0      2202         1         0
      2205         1         0      2208         1         0      2211         1         0
      2214         1         0      2217         1         0      2220         1         0
      2223         1         0      2226         1         0      2229         1         0
      2232         1         0      2235         1         0      2238         1         0
      2241         1         0      2244         1         0      2247         1         0
      2250         1         0      2253         1         0      2256         1         0
      2259         1         0      2262         1         0      2265         1         0
      2268         1         0      2271         1         0      2274         1         0
      2277         1         0      2280         1         0      2283         1         0
      2286         1         0      2289         1         0      2292         1         0
      2295         1         0      2298         1         0      2301         1         0
      2304         1         0      2307         1         0      2310         1         0
      2313         1         0      2316         1         0      2319         1         0
      2322         1         0      2325         1         0      2328         1         0
      2331         1         0      2334         1         0      2337         1         0
      2340         1         0      2343         1         0      2346         1         0
      2349         1         0      2352         1         0      2355         1         0
      2358         1         0      2361         1         0      2364         1         0
      2367         1         0      2370         1         0      2373         1         0
      2376         1         0      2379         1         0      2382         1         0
      2385         1         0      2388         1         0      2391         1         0
      2394         1         0      2397         1         0      2400         1         0
      2403         1         0      2406         1         0      2409         1         0
      2412         1         0      2415         1         0      2418         1         0
      2421         1         0      2424         1         0      2427         1         0
      2430         1         0      2433         1         0      2436         1         0
      2439         1         0      2442         1         0      2445         1         0
      2448         1         0      2451         1         0      2454         1         0
      2457         1         0      2460         1         0      2463         1         0
      2466         1         0      2469         1         0      2472         1         0
      2475         1         0      2478         1         0      2481         1         0
      2484         1         0      2487         1         0      2490         1         0
      2493         1         0      2496         1         0      2499         1         0
      2502         1         0      2505         1         0      2508         1         0
      2511         1         0      2514         1         0      2517         1         0
      2520         1         0      2523         1         0      2526         1         0
      2529         1         0      2532         1         0      2535         1         0
      2538         1         0      2541         1         0      2544         1         0
      2547         1         0      2550         1         0      2553         1         0
      2556         1         0      2559         1         0      2562         1         0
      2565         1         0      2568         1         0      2571         1         0
      2574         1         0      2577         1         0      2580         1         0
      2583         1         0      2586         1         0      2589         1         0
      2592         1         0      2595         1         0      2598         1         0
      2601         1         0      2604         1         0      2607         1         0
      2610         1         0      2613         1         0      2616         1         0
      2619         1         0      2622         1         0      2625         1         0
      2628         1         0      2631         1         0      2634         1         0
      2637         1         0      2640         1         0      2643         1         0
      2646         1         0      2649         1         0      2652         1         0
      2655         1         0      2658         1         0      2661         1         0
      2664         1         0      2667         1         0      2670         1         0
      2673         1         0      2676         1         0      2679         1         0
      2682         1         0      2685         1         0      2688         1         0
      2691         1         0      2694         1         0      2697         1         0
      2700         1         0      2703         1         0      2706         1         0
      2709         1         0      2712         1         0      2715         1         0
      2718         1         0      2721         1         0      2724         1         0
      2727         1         0      2730         1         0      2733         1         0
      2736         1         0      2739         1         0      2742         1         0
      2745         1         0      2748         1         0      2751         1         0
      2754         1         0      2757         1         0      2760         1         0
      2763         1         0      2766         1         0      2769         1         0
      2772         1         0      2775         1         0      2778         1         0
      2781         1         0      2784         1         0      2787         1         0
      2790         1         0      2793         1         0      2796         1         0
      2799         1         0      2802         1         0      2805         1         0
      2808         1         0      2811         1         0      2814         1         0
      2817         1         0      2820         1         0      2823         1         0
      2826         1         0      2829         1         0      2832         1         0
      2835         1         0      2838         1         0      2841         1         0
      2844         1         0      2847         1         0      2850         1         0
      2853         1         0      2856         1         0      2859         1         0
      2862         1         0      2865         1         0      2868         1         0
      2871         1         0      2874         1         0      2877         1         0
      2880         1         0      2883         1         0      2886         1         0
      2889         1         0      2892         1         0      2895         1         0
      2898         1         0      2901         1         0      2904         1         0
      2907         1         0      2910         1         0      2913         1         0
      2916         1         0      2919         1         0      2922         1         0
      2925         1         0      2928         1         0      2931         1         0
      2934         1         0      2937         1         0      2940         1         0
      2943         1         0      2946         1         0      2949         1         0
      2952         1         0      2955         1         0      2958         1         0
      2961         1         0      2964         1         0      2967         1         0
      2970         1         0      2973         1         0      2976         1         0
      2979         1         0      2982         1         0      2985         1         0
      2988         1         0      2991         1         0      2994         1         0
      2997         1         0      3000         1         0      3003         1         0
      3006         1         0      3009         1         0      3012         1         0
      3015         1         0      3018         1         0      3021         1         0
      3024         1         0      3027         1         0      3030         1         0
      3033         1         0      3036         1         0      3039         1         0
      3042         1         0      3045         1         0      3048         1         0
      3051         1         0      3054         1         0      3057         1         0
      3060         1         0      3063         1         0      3066         1         0
      3069         1         0      3072         1         0      3075         1         0
      3078         1         0      3081         1         0      3084         1         0
      3087         1         0      3090         1         0      3093         1         0
      3096         1         0      3099         1         0      3102         1         0
      3105         1         0      3108         1         0      3111         1         0
      3114         1         0      3117         1         0      3120         1         0
      3123         1         0      3126         1         0      3129         1         0
      3132         1         0      3135         1         0      3138         1         0
      3141         1         0      3144         1         0      3147         1         0
      3150         1         0      3153         1         0      3156         1         0
      3159         1         0      3162         1         0      3165         1         0
      3168         1         0      3171         1         0      3174         1         0
      3177         1         0      3180         1         0      3183         1         0
      3186         1         0      3189         1         0      3192         1         0
      3195         1         0      3198         1         0      3201         1         0
      3204         1         0      3207         1         0      3210         1         0
      3213         1         0      3216         1         0      3219         1         0
      3222         1         0      3225         1         0      3228         1         0
      3231         1         0      3234         1         0      3237         1         0
      3240         1         0      3243         1         0      3246         1         0
      3249         1         0      3252         1         0      3255         1         0
      3258         1         0      3261         1         0      3264         1         0
      3267         1         0      3270         1         0      3273         1         0
      3276         1         0      3279         1         0      3282         1         0
      3285         1         0      3288         1         0      3291         1         0
      3294         1         0      3297         1         0      3300         1         0
      3303         1         0      3306         1         0      3309         1         0
      3312         1         0      3315         1         0      3318         1         0
      3321         1         0      3324         1         0      3327         1         0
      3330         1         0      3333         1         0      3336         1         0
      3339         1         0      3342         1         0      3345         1         0
      3348         1         0      3351         1         0      3354         1         0
      3357         1         0      3360         1         0      3363         1         0
      3366         1         0      3369         1         0      3372         1         0
      3375         1         0      3378         1         0      3381         1         0
      3384         1         0      3387         1         0      3390         1         0
      3393         1         0      3396         1         0      3399         1         0
      3402         1         0      3405         1         0      3408         1         0
      3411         1         0      3414         1         0      3417         1         0
      3420         1         0      3423         1         0      3426         1         0
      3429         1         0      3432         1         0      3435         1         0
      3438         1         0      3441         1         0      3444         1         0
      3447         1         0      3450         1         0      3453         1         0
      3456         1         0      3459         1         0      3462         1         0
      3465         1         0      3468         1         0      3471         1         0
      3474         1         0      3477         1         0      3480         1         0
      3483         1         0      3486         1         0      3489         1         0
      3492         1         0      3495         1         0      3498         1         0
      3501         1         0      3504         1         0      3507         1         0
      3510         1         0      3513         1         0      3516         1         0
      3519         1         0      3522         1         0      3525         1         0
      3528         1         0      3531         1         0      3534         1         0
      3537         1         0      3540         1         0      3543         1         0
      3546         1         0      3549         1         0      3552         1         0
      3555         1         0      3558         1         0      3561         1         0
      3564         1         0      3567         1         0      3570         1         0
      3573         1         0      3576         1         0      3579         1         0
      3582         1         0      3585         1         0      3588         1         0
      3591         1         0      3594         1         0      3597         1         0
      3600         1         0      3603         1         0      3606         1         0
      3609         1         0      3612         1         0      3615         1         0
      3618         1         0      3621         1         0      3624         1         0
      3627         1         0      3630         1         0      3633         1         0
      3636         1         0      3639         1         0      3642         1         0
      3645         1         0      3648         1         0      3651         1         0
      3654         1         0      3657         1         0      3660         1         0
      3663         1         0      3666         1         0      3669         1         0
      3672         1         0      3675         1         0      3678         1         0
      3681         1         0      3684         1         0      3687         1         0
      3690         1         0      3693         1         0      3696         1         0
      3699         1         0      3702         1         0      3705         1         0
      3708         1         0      3711         1         0      3714         1         0
      3717         1         0      3720         1         0      3723         1         0
      3726         1         0      3729         1         0      3732         1         0
      3735         1         0      3738         1         0      3741         1         0
      3744         1         0      3747         1         0      3750         1         0
      3753         1         0      3756         1         0      3759         1         0
      3762         1         0      3765         1         0      3768         1         0
      3771         1         0      3774         1         0      3777         1         0
      3780         1         0      3783         1         0      3786         1         0
      3789         1         0      3792         1         0      3795         1         0
      3798         1         0      3801         1         0      3804         1         0
      3807         1         0      3810         1         0      3813         1         0
      3816         1         0      3819         1         0      3822         1         0
      3825         1         0      3828         1         0      3831         1         0
      3834         1         0      3837         1         0      3840         1         0
      3843         1         0      3846         1         0      3849         1         0
      3852         1         0      3855         1         0      3858         1         0
      3861         1         0      3864         1         0      3867         1         0
      3870         1         0      3873         1         0      3876         1         0
      3879         1         0      3882         1         0      3885         1         0
      3888         1         0      3891         1         0      3894         1         0
      3897         1         0      3900         1         0      3903         1         0
      3906         1         0      3909         1         0      3912         1         0
      3915         1         0      3918         1         0      3921         1         0
      3924         1         0      3927         1         0      3930         1         0
      3933         1         0      3936         1         0      3939         1         0
      3942         1         0      3945         1         0      3948         1         0
      3951         1         0      3954         1         0      3957         1         0
      3960         1         0      3963         1         0      3966         1         0
      3969         1         0      3972         1         0      3975         1         0
      3978         1         0      3981         1         0      3984         1         0
      3987         1         0      3990         1         0      3993         1         0
      3996         1         0      3999         1         0      4002         1         0
      4005         1         0      4008         1         0      4011         1         0
      4014         1         0      4017         1         0      4020         1         0
      4023         1         0      4026         1         0      4029         1         0
      4032         1         0      4035         1         0      4038         1         0
      4041         1         0      4044         1         0      4047         1         0
      4050         1         0      4053         1         0      4056         1         0
      4059         1         0      4062         1         0      4065         1         0
      4068         1         0      4071         1         0      4074         1         0
      4077         1         0      4080         1         0      4083         1         0
      4086         1         0      4089         1         0      4092         1         0
      4095         1         0      4098         1         0      4101         1         0
      4104         1         0      4107         1         0      4110         1         0
      4113         1         0      4116         1         0      4119         1         0
      4122         1         0      4125         1         0      4128         1         0
      4131         1         0      4134         1         0      4137         1         0
      4140         1         0      4143         1         0      4146         1         0
      4149         1         0      4152         1         0      4155         1         0
      4158         1         0      4161         1         0      4164         1         0
      4167         1         0      4170         1         0      4173         1         0
      4176         1         0      4179         1         0      4182         1         0
      4185         1         0      4188         1         0      4191         1         0
      4194         1         0      4197         1         0      4200         1         0
      4203         1         0      4206         1         0      4209         1         0
      4212         1         0      4215         1         0      4218         1         0
      4221         1         0      4224         1         0      4227         1         0
      4230         1         0      4233         1         0      4236         1         0
      4239         1         0      4242         1         0      4245         1         0
      4248         1         0      4251         1         0      4254         1         0
      4257         1         0      4260         1         0      4263         1         0
      4266         1         0      4269         1         0      4272         1         0
      4275         1         0      4278         1         0      4281         1         0
      4284         1         0      4287         1         0      4290         1         0
      4293         1         0      4296         1         0      4299         1         0
      4302         1         0      4305         1         0      4308         1         0
      4311         1         0      4314         1         0      4317         1         0
      4320         1         0      4323         1         0      4326         1         0
      4329         1         0      4332         1         0      4335         1         0
      4338         1         0      4341         1         0      4344         1         0
      4347         1         0      4350         1         0      4353         1         0
      4356         1         0      4359         1         0      4362         1         0
      4365         1         0      4368         1         0      4371         1         0
      4374         1         0      4377         1         0      4380         1         0
      4383         1         0      4386         1         0      4389         1         0
      4392         1         0      4395         1         0      4398         1         0
      4401         1         0      4404         1         0      4407         1         0
      4410         1         0      4413         1         0      4416         1         0
      4419         1         0      4422         1         0      4425         1         0
      4428         1         0      4431         1         0      4434         1         0
      4437         1         0      4440         1         0      4443         1         0
      4446         1         0      4449         1         0      4452         1         0
      4455         1         0      4458         1         0      4461         1         0
      4464         1         0      4467         1         0      4470         1         0
      4473         1         0      4476         1         0      4479         1         0
      4482         1         0      4485         1         0      4488         1         0
      4491         1         0      4494         1         0      4497         1         0
      4500         1         0      4503         1         0      4506         1         0
      4509         1         0      4512         1         0      4515         1         0
      4518         1         0      4521         1         0      4524         1         0
      4527         1         0      4530         1         0      4533         1         0
      4536         1         0      4539         1         0      4542         1         0
      4545         1         0      4548         1         0      4551         1         0
      4554         1         0      4557         1         0      4560         1         0
      4563         1         0      4566         1         0      4569         1         0
      4572         1         0      4575         1         0      4578         1         0
      4581         1         0      4584         1         0      4587         1         0
      4590         1         0      4593         1         0      4596         1         0
      4599         1         0      4602         1         0      4605         1         0
      4608         1         0      4611         1         0      4614         1         0
      4617         1         0      4620         1         0      4623         1         0
      4626         1         0      4629         1         0      4632         1         0
      4635         1         0      4638         1         0      4641         1         0
      4644         1         0      4647         1         0      4650         1         0
      4653         1         0      4656         1         0      4659         1         0
      4662         1         0      4665         1         0      4668         1         0
      4671         1         0      4674         1         0      4677         1         0
      4680         1         0      4683         1         0      4686         1         0
      4689         1         0      4692         1         0      4695         1         0
      4698         1         0      4701         1         0      4704         1         0
      4707         1         0      4710         1         0      4713         1         0
      4716         1         0      4719         1         0      4722         1         0
      4725         1         0      4728         1         0      4731         1         0
      4734         1         0      4737         1         0      4740         1         0
      4743         1         0      4746         1         0      4749         1         0
      4752         1         0      4755         1         0      4758         1         0
      4761         1         0      4764         1         0      4767         1         0
      4770         1         0      4773         1         0      4776         1         0
      4779         1         0      4782         1         0      4785         1         0
      4788         1         0      4791         1         0      4794         1         0
      4797         1         0      4800         1         0      4803         1         0
      4806         1         0      4809         1         0      4812         1         0
      4815         1         0      4818         1         0      4821         1         0
      4824         1         0      4827         1         0      4830         1         0
      4833         1         0      4836         1         0      4839         1         0
      4842         1         0      4845         1         0      4848         1         0
      4851         1         0      4854         1         0      4857         1         0
      4860         1         0      4863         1         0      4866         1         0
      4869         1         0      4872         1         0      4875         1         0
      4878         1         0      4881         1         0      4884         1         0
      4887         1         0      4890         1         0      4893         1         0
      4896         1         0      4899         1         0      4902         1         0
      4905         1         0      4908         1         0      4911         1         0
      4914         1         0      4917         1         0      4920         1         0
      4923         1         0      4926         1         0      4929         1         0
      4932         1         0      4935         1         0      4938         1         0
      4941         1         0      4944         1         0      4947         1         0
      4950         1         0      4953         1         0      4956         1         0
      4959         1         0      4962         1         0      4965         1         0
      4968         1         0      4971         1         0      4974         1         0
      4977         1         0      4980         1         0      4983         1         0
      4986         1         0      4989         1         0      4992         1         0
      4995         1         0      4998         1         0      5001         1         0
      5004         1         0      5007         1         0      5010         1         0
      5013         1         0      5016         1         0      5019         1         0
      5022         1         0      5025         1         0      5028         1         0
      5031         1         0      5034         1         0      5037         1         0
      5040         1         0      5043         1         0      5046         1         0
      5049         1         0      5052         1         0      5055         1         0
      5058         1         0      5061         1         0      5064         1         0
      5067         1         0      5070         1         0      5073         1         0
      5076         1         0      5079         1         0      5082         1         0
      5085         1         0      5088         1         0      5091         1         0
      5094         1         0      5097         1         0      5100         1         0
      5103         1         0      5106         1         0      5109         1         0
      5112         1         0      5115         1         0      5118         1         0
      5121         1         0      5124         1         0      5127         1         0
      5130         1         0      5133         1         0      5136         1         0
      5139         1         0      5142         1         0      5145         1         0
      5148         1         0      5151         1         0      5154         1         0
      5157         1         0      5160         1         0      5163         1         0
      5166         1         0      5169         1         0      5172         1         0
      5175         1         0

         0         0 !NUMLP NUMLPH

         0 !NCRTERM: cross-terms


      1726 !AUTOGEN
         0         0         0         0         0         0         0         0
         0         0         0         0         0         0         0         0
         0         0         0         0         0         0         0         0
         0         0         0         0         0         0         0         0
         0         0         0         0         0         0         0         0
         0         0         0         0         0         0         0         0
         0         0         0         0         0         0         0         0
         0         0         0         0         0         0         0         0
         0         0         0         0         0         0         0         0
         0         0         0         0         0         0         0         0
         0         0         0         0         0         0         0         0
         0         0         0         0         0         0         0         0
         0         0         0         0         0         0         0         0
         0         0         0         0         0         0         0         0
         0         0         0         0         0         0         0         0
         0         0         0         0         0         0         0         0
         0         0         0         0         0         0         0         0
         0         0         0         0         0         0         0         0
         0         0         0         0         0         0         0         0
         0         0         0         0         0         0         0         0
         0         0         0         0         0         0         0         0
         0         0         0         0         0         0         0         0
         0         0         0         0         0         0         0         0
         0         0         0         0         0         0         0         0
         0         0         0         0         0         0         0         0
         0         0         0         0         0         0         0         0
         0         0         0         0         0         0         0         0
         0         0         0         0         0         0         0         0
         0         0         0         0         0         0         0         0
         0         0         0         0         0         0         0         0
         0         0         0         0         0         0         0         0
         0         0         0         0         0         0         0         0
         0         0         0         0         0         0         0         0
         0         0         0         0         0         0         0         0
         0         0         0         0         0         0         0         0
         0         0         0         0         0         0         0         0
         0         0         0         0         0         0         0         0
         0         0         0         0         0         0         0         0
         0         0         0         0         0         0         0         0
         0         0         0         0         0         0         0         0
         0         0         0         0         0         0         0         0
         0         0         0         0         0         0         0         0
         0         0         0         0         0         0         0         0
         0         0         0         0         0         0         0         0
         0         0         0         0         0         0         0         0
         0         0         0         0         0         0         0         0
         0         0         0         0         0         0         0         0
         0         0         0         0         0         0         0         0
         0         0         0         0         0         0         0         0
         0         0         0         0         0         0         0         0
         0         0         0         0         0         0         0         0
         0         0         0         0         0         0         0         0
         0         0         0         0         0         0         0         0
         0         0         0         0         0         0         0         0
         0         0         0         0         0         0         0         0
         0         0         0         0         0         0         0         0
         0         0         0         0         0         0         0         0
         0         0         0         0         0         0         0         0
         0         0         0         0         0         0         0         0
         0         0         0         0         0         0         0         0
         0         0         0         0         0         0         0         0
         0         0         0         0         0         0         0         0
         0         0         0         0         0         0         0         0
         0         0         0         0         0         0         0         0
         0         0         0         0         0         0         0         0
         0         0         0         0         0         0         0         0
         0         0         0         0         0         0         0         0
         0         0         0         0         0         0         0         0
         0         0         0         0         0         0         0         0
         0         0         0         0         0         0         0         0
         0         0         0         0         0         0         0         0
         0         0         0         0         0         0         0         0
         0         0         0         0         0         0         0         0
         0         0         0         0         0         0         0         0
         0         0         0         0         0         0         0         0
         0         0         0         0         0         0         0         0
         0         0         0         0         0         0         0         0
         0         0         0         0         0         0         0         0
         0         0         0         0         0         0         0         0
         0         0         0         0         0         0         0         0
         0         0         0         0         0         0         0         0
         0         0         0         0         0         0         0         0
         0         0         0         0         0         0         0         0
         0         0         0         0         0         0         0         0
         0         0         0         0         0         0         0         0
         0         0         0         0         0         0         0         0
         0         0         0         0         0         0         0         0
         0         0         0         0         0         0         0         0
         0         0         0         0         0         0         0         0
         0         0         0         0         0         0         0         0
         0         0         0         0         0         0         0         0
         0         0         0         0         0         0         0         0
         0         0         0         0         0         0         0         0
         0         0         0         0         0         0         0         0
         0         0         0         0         0         0         0         0
         0         0         0         0         0         0         0         0
         0         0         0         0         0         0         0         0
         0         0         0         0         0         0         0         0
         0         0         0         0         0         0         0         0
         0         0         0         0         0         0         0         0
         0         0         0         0         0         0         0         0
         0         0         0         0         0         0         0         0
         0         0         0         0         0         0         0         0
         0         0         0         0         0         0         0         0
         0         0         0         0         0         0         0         0
         0         0         0         0         0         0         0         0
         0         0         0         0         0         0         0         0
         0         0         0         0         0         0         0         0
         0         0         0         0         0         0         0         0
         0         0         0         0         0         0         0         0
         0         0         0         0         0         0         0         0
         0         0         0         0         0         0         0         0
         0         0         0         0         0         0         0         0
         0         0         0         0         0         0         0         0
         0         0         0         0         0         0         0         0
         0         0         0         0         0         0         0         0
         0         0         0         0         0         0         0         0
         0         0         0         0         0         0         0         0
         0         0         0         0         0         0         0         0
         0         0         0         0         0         0         0         0
         0         0         0         0         0         0         0         0
         0         0         0         0         0         0         0         0
         0         0         0         0         0         0         0         0
         0         0         0         0         0         0         0         0
         0         0         0         0         0         0         0         0
         0         0         0         0         0         0         0         0
         0         0         0         0         0         0         0         0
         0         0         0         0         0         0         0         0
         0         0         0         0         0         0         0         0
         0         0         0         0         0         0         0         0
         0         0         0         0         0         0         0         0
         0         0         0         0         0         0         0         0
         0         0         0         0         0         0         0         0
         0         0         0         0         0         0         0         0
         0         0         0         0         0         0         0         0
         0         0         0         0         0         0         0         0
         0         0         0         0         0         0         0         0
         0         0         0         0         0         0         0         0
         0         0         0         0         0         0         0         0
         0         0         0         0         0         0         0         0
         0         0         0         0         0         0         0         0
         0         0         0         0         0         0         0         0
         0         0         0         0         0         0         0         0
         0         0         0         0         0         0         0         0
         0         0         0         0         0         0         0         0
         0         0         0         0         0         0         0         0
         0         0         0         0         0         0         0         0
         0         0         0         0         0         0         0         0
         0         0         0         0         0         0         0         0
         0         0         0         0         0         0         0         0
         0         0         0         0         0         0         0         0
         0         0         0         0         0         0         0         0
         0         0         0         0         0         0         0         0
         0         0         0         0         0         0         0         0
         0         0         0         0         0         0         0         0
         0         0         0         0         0         0         0         0
         0         0         0         0         0         0         0         0
         0         0         0         0         0         0         0         0
         0         0         0         0         0         0         0         0
         0         0         0         0         0         0         0         0
         0         0         0         0         0         0         0         0
         0         0         0         0         0         0         0         0
         0         0         0         0         0         0         0         0
         0         0         0         0         0         0         0         0
         0         0         0         0         0         0         0         0
         0         0         0         0         0         0         0         0
         0         0         0         0         0         0         0         0
         0         0         0         0         0         0         0         0
         0         0         0         0         0         0         0         0
         0         0         0         0         0         0         0         0
         0         0         0         0         0         0         0         0
         0         0         0         0         0         0         0         0
         0         0         0         0         0         0         0         0
         0         0         0         0         0         0         0         0
         0         0         0         0         0         0         0         0
         0         0         0         0         0         0         0         0
         0         0         0         0         0         0         0         0
         0         0         0         0         0         0         0         0
         0         0         0         0         0         0         0         0
         0         0         0         0         0         0         0         0
         0         0         0         0         0         0         0         0
         0         0         0         0         0         0         0         0
         0         0         0         0         0         0         0         0
         0         0         0         0         0         0         0         0
         0         0         0         0         0         0         0         0
         0         0         0         0         0         0         0         0
         0         0         0         0         0         0         0         0
         0         0         0         0         0         0         0         0
         0         0         0         0         0         0         0         0
         0         0         0         0         0         0         0         0
         0         0         0         0         0         0         0         0
         0         0         0         0         0         0         0         0
         0         0         0         0         0         0         0         0
         0         0         0         0         0         0         0         0
         0         0         0         0         0         0         0         0
         0         0         0         0         0         0         0         0
         0         0         0         0         0         0         0         0
         0         0         0         0         0         0         0         0
         0         0         0         0         0         0         0         0
         0         0         0         0         0         0         0         0
         0         0         0         0         0         0         0         0
         0         0         0         0         0         0         0         0
         0         0         0         0         0         0         0         0
         0         0         0         0         0         0         0         0
         0         0         0         0         0         0         0         0
         0         0         0         0         0         0         0         0
         0         0         0         0         0         0         0         0
         0         0         0         0         0         0         0         0
         0         0         0         0         0         0         0         0
         0         0         0         0         0         0         0         0
         0         0         0         0         0         0         0         0
         0         0         0         0         0         0         0         0
         0         0         0         0         0         0         0         0
         0         0         0         0         0         0         0         0
         0         0         0         0         0         0         0         0
         0         0         0         0         0         0         0         0
         0         0         0         0         0         0         0         0
         0         0         0         0         0         0         0         0
         0         0         0         0         0         0         0         0
         0         0         0         0         0         0         0         0
         0         0         0         0         0         0         0         0
         0         0         0         0         0         0         0         0
         0         0         0         0         0         0         0         0
         0         0         0         0         0         0         0         0
         0         0         0         0         0         0         0         0
         0         0         0         0         0         0         0         0
         0         0         0         0         0         0         0         0
         0         0         0         0         0         0         0         0
         0         0         0         0         0         0         0         0
         0         0         0         0         0         0         0         0
         0         0         0         0         0         0         0         0
         0         0         0         0         0         0         0         0
         0         0         0         0         0         0         0         0
         0         0         0         0         0         0         0         0
         0         0         0         0         0         0         0         0
         0         0         0         0         0         0         0         0
         0         0         0         0         0         0         0         0
         0         0         0         0         0         0         0         0
         0         0         0         0         0         0         0         0
         0         0         0         0         0         0         0         0
         0         0         0         0         0         0         0         0
         0         0         0         0         0         0         0         0
         0         0         0         0         0         0         0         0
         0         0         0         0         0         0         0         0
         0         0         0         0         0         0         0         0
         0         0         0         0         0         0         0         0
         0         0         0         0         0         0         0         0
         0         0         0         0         0         0         0         0
         0         0         0         0         0         0         0         0
         0         0         0         0         0         0         0         0
         0         0         0         0         0         0         0         0
         0         0         0         0         0         0         0         0
         0         0         0         0         0         0         0         0
         0         0         0         0         0         0         0         0
         0         0         0         0         0         0         0         0
         0         0         0         0         0         0         0         0
         0         0         0         0         0         0         0         0
         0         0         0         0         0         0         0         0
         0         0         0         0         0         0         0         0
         0         0         0         0         0         0         0         0
         0         0         0         0         0         0         0         0
         0         0         0         0         0         0         0         0
         0         0         0         0         0         0         0         0
         0         0         0         0         0         0         0         0
         0         0         0         0         0         0         0         0
         0         0         0         0         0         0         0         0
         0         0         0         0         0         0         0         0
         0         0         0         0         0         0         0         0
         0         0         0         0         0         0         0         0
         0         0         0         0         0         0         0         0
         0         0         0         0         0         0         0         0
         0         0         0         0         0         0         0         0
         0         0         0         0         0         0         0         0
         0         0         0         0         0         0         0         0
         0         0         0         0         0         0         0         0
         0         0         0         0         0         0         0         0
         0         0         0         0         0         0         0         0
         0         0         0         0         0         0         0         0
         0         0         0         0         0         0         0         0
         0         0         0         0         0         0         0         0
         0         0         0         0         0         0         0         0
         0         0         0         0         0         0         0         0
         0         0         0         0         0         0         0         0
         0         0         0         0         0         0         0         0
         0         0         0         0         0         0         0         0
         0         0         0         0         0         0         0         0
         0         0         0         0         0         0         0         0
         0         0         0         0         0         0         0         0
         0         0         0         0         0         0         0         0
         0         0         0         0         0         0         0         0
         0         0         0         0         0         0         0         0
         0         0         0         0         0         0         0         0
         0         0         0         0         0         0         0         0
         0         0         0         0         0         0         0         0
         0         0         0         0         0         0         0         0
         0         0         0         0         0         0         0         0
         0         0         0         0         0         0         0         0
         0         0         0         0         0         0         0         0
         0         0         0         0         0         0         0         0
         0         0         0         0         0         0         0         0
         0         0         0         0         0         0         0         0
         0         0         0         0         0         0         0         0
         0         0         0         0         0         0         0         0
         0         0         0         0         0         0         0         0
         0         0         0         0         0         0         0         0
         0         0         0         0         0         0         0         0
         0         0         0         0         0         0         0         0
         0         0         0         0         0         0         0         0
         0         0         0         0         0         0         0         0
         0         0         0         0         0         0         0         0
         0         0         0         0         0         0         0         0
         0         0         0         0         0         0         0         0
         0         0         0         0         0         0         0         0
         0         0         0         0         0         0         0         0
         0         0         0         0         0         0         0         0
         0         0         0         0         0         0         0         0
         0         0         0         0         0         0         0         0
         0         0         0         0         0         0         0         0
         0         0         0         0         0         0         0         0
         0         0         0         0         0         0         0         0
         0         0         0         0         0         0         0         0
         0         0         0         0         0         0         0         0
         0         0         0         0         0         0         0         0
         0         0         0         0         0         0         0         0
         0         0         0         0         0         0         0         0
         0         0         0         0         0         0         0         0
         0         0         0         0         0         0         0         0
         0         0         0         0         0         0         0         0
         0         0         0         0         0         0         0         0
         0         0         0         0         0         0         0         0
         0         0         0         0         0         0         0         0
         0         0         0         0         0         0         0         0
         0         0         0         0         0         0         0         0
         0         0         0         0         0         0         0         0
         0         0         0         0         0         0         0         0
         0         0         0         0         0         0         0         0
         0         0         0         0         0         0         0         0
         0         0         0         0         0         0         0         0
         0         0         0         0         0         0         0         0
         0         0         0         0         0         0         0         0
         0         0         0         0         0         0         0         0
         0         0         0         0         0         0         0         0
         0         0         0         0         0         0         0         0
         0         0         0         0         0         0         0         0
         0         0         0         0         0         0         0         0
         0         0         0         0         0         0         0         0
         0         0         0         0         0         0         0         0
         0         0         0         0         0         0         0         0
         0         0         0         0         0         0         0         0
         0         0         0         0         0         0         0         0
         0         0         0         0         0         0         0         0
         0         0         0         0         0         0         0         0
         0         0         0         0         0         0         0         0
         0         0         0         0         0         0         0         0
         0         0         0         0         0         0         0         0
         0         0         0         0         0         0         0         0
         0         0         0         0         0         0         0         0
         0         0         0         0         0         0         0         0
         0         0         0         0         0         0         0         0
         0         0         0         0         0         0         0         0
         0         0         0         0         0         0         0         0
         0         0         0         0         0         0         0         0
         0         0         0         0         0         0         0         0
         0         0         0         0         0         0         0         0
         0         0         0         0         0         0         0         0
         0         0         0         0         0         0         0         0
         0         0         0         0         0         0         0         0
         0         0         0         0         0         0         0         0
         0         0         0         0         0         0         0         0
         0         0         0         0         0         0         0         0
         0         0         0         0         0         0         0         0
         0         0         0         0         0         0         0         0
         0         0         0         0         0         0         0         0
         0         0         0         0         0         0         0         0
         0         0         0         0         0         0         0         0
         0         0         0         0         0         0         0         0
         0         0         0         0         0         0         0         0
         0         0         0         0         0         0         0         0
         0         0         0         0         0         0         0         0
         0         0         0         0         0         0         0         0
         0         0         0         0         0         0         0         0
         0         0         0         0         0         0         0         0
         0         0         0         0         0         0         0         0
         0         0         0         0         0         0         0         0
         0         0         0         0         0         0         0         0
         0         0         0         0         0         0         0         0
         0         0         0         0         0         0         0         0
         0         0         0         0         0         0         0         0
         0         0         0         0         0         0         0         0
         0         0         0         0         0         0         0         0
         0         0         0         0         0         0         0         0
         0         0         0         0         0         0         0         0
         0         0         0         0         0         0         0         0
         0         0         0         0         0         0         0         0
         0         0         0         0         0         0         0         0
         0         0         0         0         0         0         0         0
         0         0         0         0         0         0         0         0
         0         0         0         0         0         0         0         0
         0         0         0         0         0         0         0         0
         0         0         0         0         0         0         0         0
         0         0         0         0         0         0         0         0
         0         0         0         0         0         0         0         0
         0         0         0         0         0         0         0         0
         0         0         0         0         0         0         0         0
         0         0         0         0         0         0         0         0
         0         0         0         0         0         0         0         0
         0         0         0         0         0         0         0         0
         0         0         0         0         0         0         0         0
         0         0         0         0         0         0         0         0
         0         0         0         0         0         0         0         0
         0         0         0         0         0         0         0         0
         0         0         0         0         0         0         0         0
         0         0         0         0         0         0         0         0
         0         0         0         0         0         0         0         0
         0         0         0         0         0         0         0         0
         0         0         0         0         0         0         0         0
         0         0         0         0         0         0         0         0
         0         0         0         0         0         0         0         0
         0         0         0         0         0         0         0         0
         0         0         0         0         0         0         0         0
         0         0         0         0         0         0         0         0
         0         0         0         0         0         0         0         0
         0         0         0         0         0         0         0         0
         0         0         0         0         0         0         0         0
         0         0         0         0         0         0         0         0
         0         0         0         0         0         0         0         0
         0         0         0         0         0         0         0         0
         0         0         0         0         0         0         0         0
         0         0         0         0         0         0         0         0
         0         0         0         0         0         0         0         0
         0         0         0         0         0         0         0         0
         0         0         0         0         0         0         0         0
         0         0         0         0         0         0         0         0
         0         0         0         0         0         0         0         0
         0         0         0         0         0         0         0         0
         0         0         0         0         0         0         0         0
         0         0         0         0         0         0         0         0
         0         0         0         0         0         0         0         0
         0         0         0         0         0         0         0         0
         0         0         0         0         0         0         0         0
         0         0         0         0         0         0         0         0
         0         0         0         0         0         0         0         0
         0         0         0         0         0         0         0         0
         0         0         0         0         0         0         0         0
         0         0         0         0         0         0         0         0
         0         0         0         0         0         0         0         0
         0         0         0         0         0         0         0         0
         0         0         0         0         0         0         0         0
         0         0         0         0         0         0         0         0
         0         0         0         0         0         0         0         0
         0         0         0         0         0         0         0         0
         0         0         0         0         0         0         0         0
         0         0         0         0         0         0         0         0
         0         0         0         0         0         0         0         0
         0         0         0         0         0         0         0         0
         0         0         0         0         0         0         0         0
         0         0         0         0         0         0         0         0
         0         0         0         0         0         0         0         0
         0         0         0         0         0         0         0         0
         0         0         0         0         0         0         0         0
         0         0         0         0         0         0         0         0
         0         0         0         0         0         0         0         0
         0         0         0         0         0         0         0         0
         0         0         0         0         0         0         0         0
         0         0         0         0         0         0         0         0
         0         0         0         0         0         0         0         0
         0         0         0         0         0         0         0         0
         0         0         0         0         0         0         0         0
         0         0         0         0         0         0         0         0
         0         0         0         0         0         0         0         0
         0         0         0         0         0         0         0         0
         0         0         0         0         0         0         0         0
         0         0         0         0         0         0         0         0
         0         0         0         0         0         0         0         0
         0         0         0         0         0         0         0         0
         0         0         0         0         0         0         0         0
         0         0         0         0         0         0         0         0
         0         0         0         0         0         0         0         0
         0         0         0         0         0         0         0         0
         0         0         0         0         0         0         0         0
         0         0         0         0         0         0         0         0
         0         0         0         0         0         0         0         0
         0         0         0         0         0         0         0         0
         0         0         0         0         0         0         0         0
         0         0         0         0         0         0         0         0
         0         0         0         0         0         0         0         0
         0         0         0         0         0         0         0         0
         0         0         0         0         0         0         0         0
         0         0         0         0         0         0         0         0
         0         0         0         0         0         0         0         0
         0         0         0         0         0         0         0         0
         0         0         0         0         0         0         0         0
         0         0         0         0         0         0         0         0
         0         0         0         0         0         0         0         0
         0         0         0         0         0         0         0         0
         0         0         0         0         0         0         0         0
         0         0         0         0         0         0         0         0
         0         0         0         0         0         0         0         0
         0         0         0         0         0         0         0         0
         0         0         0         0         0         0         0         0
         0         0         0         0         0         0         0         0
         0         0         0         0         0         0         0         0
         0         0         0         0         0         0         0         0
         0         0         0         0         0         0         0         0
         0         0         0         0         0         0         0         0
         0         0         0         0         0         0         0         0
         0         0         0         0         0         0         0         0
         0         0         0         0         0         0         0         0
         0         0         0         0         0         0         0         0
         0         0         0         0         0         0         0         0
         0         0         0         0         0         0         0         0
         0         0         0         0         0         0         0         0
         0         0         0         0         0         0         0         0
         0         0         0         0         0         0         0         0
         0         0         0         0         0         0         0         0
         0         0         0         0         0         0         0         0
         0         0         0         0         0         0         0         0
         0         0         0         0         0         0         0         0
         0         0         0         0         0         0         0         0
         0         0         0         0         0         0         0         0
         0         0         0         0         0         0         0         0
         0         0         0         0         0         0         0         0
         0         0         0         0         0         0         0         0
         0         0         0         0         0         0         0         0
         0         0         0         0         0         0         0         0
         0         0         0         0         0         0         0         0
         0         0         0         0         0         0         0         0
         0         0         0         0         0         0         0         0
         0         0         0         0         0         0         0         0
         0         0         0         0         0         0         0         0
         0         0         0         0         0         0         0         0
         0         0         0         0         0         0         0         0
         0         0         0         0         0         0         0         0
         0         0         0         0         0         0         0         0
         0         0         0         0         0         0         0         0
         0         0         0         0         0         0         0         0
         0         0         0         0         0         0         0         0
         0         0         0         0         0         0         0         0
         0         0         0         0         0         0         0         0
         0         0         0         0         0         0         0         0
         0         0         0         0         0         0         0         0
         0         0         0         0         0         0         0         0
         0         0         0         0         0         0         0         0
         0         0         0         0         0         0         0         0
         0         0         0         0         0         0         0         0
         0         0         0         0         0         0         0         0
         0         0         0         0         0         0         0         0
         0         0         0         0         0         0         0         0
         0         0         0         0         0         0         0         0
         0         0         0         0         0         0         0         0
         0         0         0         0         0         0         0         0
         0         0         0         0         0         0         0         0
         0         0         0         0         0         0         0         0
         0         0         0         0         0         0         0         0
         0         0         0         0         0         0         0         0
         0         0         0         0         0         0         0         0
         0         0         0         0         0         0         0         0
         0         0         0         0         0         0         0         0
         0         0         0         0         0         0         0         0
         0         0         0         0         0         0         0         0
         0         0         0         0         0         0         0         0
         0         0         0         0         0         0         0         0
         0         0         0         0         0         0         0         0
         0         0         0         0         0         0         0         0
         0         0         0         0         0         0         0         0
         0         0         0         0         0         0         0         0
         0         0         0         0         0         0         0         0
         0         0         0         0         0         0         0         0
         0         0         0         0         0         0         0         0
         0         0         0         0         0         0         0         0
         0         0         0         0         0         0         0         0
         0         0         0         0         0         0         0         0
         0         0         0         0         0         0         0         0
         0         0         0         0         0         0         0         0
         0         0         0         0         0         0         0         0
         0         0         0         0         0         0         0         0
         0         0         0         0         0         0         0         0
         0         0         0         0         0         0         0         0
         0         0         0         0         0         0         0         0
         0         0         0         0         0         0         0         0
         0         0         0         0         0         0         0         0
         0         0         0         0         0         0         0         0
         0         0         0         0         0         0         0         0
         0         0         0         0         0         0         0         0
         0         0         0         0         0         0         0         0
         0         0         0         0         0         0         0         0
         0         0         0         0         0         0         0         0
         0         0         0         0         0         0         0         0
         0         0         0         0         0         0         0         0
         0         0         0         0         0         0         0         0
         0         0         0         0         0         0         0         0
         0         0         0         0         0         0         0         0
         0         0         0         0         0         0         0         0
         0         0         0         0         0         0         0         0
         0         0         0         0         0         0         0         0
         0         0         0         0         0         0         0         0
         0         0         0         0         0         0         0         0
         0         0         0         0         0         0         0         0
         0         0         0         0         0         0         0         0
         0         0         0         0         0         0         0         0
         0         0         0         0         0         0         0         0
         0         0         0         0         0         0         0         0
         0         0         0         0         0         0         0         0
         0         0         0         0         0         0         0         0
         0         0         0         0         0         0         0         0
         0         0         0         0         0         0         0         0
         0         0         0         0         0         0         0         0
         0         0         0         0         0         0         0         0
         0         0         0         0         0         0         0         0
         0         0         0         0         0         0         0         0
         0         0         0         0         0         0         0         0
         0         0         0         0         0         0         0         0
         0         0         0         0         0         0         0         0
         0         0         0         0         0         0         0         0
         0         0         0         0         0         0         0         0
         0         0         0         0         0         0         0         0
         0         0         0         0         0         0         0         0
         0         0         0         0         0         0         0         0
         0         0         0         0         0         0         0         0
         0         0         0         0         0         0         0         0
         0         0         0         0         0         0         0         0
         0         0         0         0         0         0         0         0
         0         0         0         0         0         0         0         0
         0         0         0         0         0         0         0         0
         0         0         0         0         0         0         0         0
         0         0         0         0         0         0         0         0
         0         0         0         0         0         0         0         0
         0         0         0         0         0         0         0         0
         0         0         0         0         0         0         0         0
         0         0         0         0         0         0         0         0
         0         0         0         0         0         0         0         0
         0         0         0         0         0         0         0         0
         0         0         0         0         0         0         0         0
         0         0         0         0         0         0         0         0
         0         0         0         0         0         0         0         0
         0         0         0         0         0         0         0         0
         0         0         0         0         0         0         0         0
         0         0         0         0         0         0         0         0
         0         0         0         0         0         0         0         0
         0         0         0         0         0         0         0         0
         0         0         0         0         0         0         0         0
         0         0         0         0         0         0         0         0
         0         0         0         0         0         0         0         0
         0         0         0         0         0         0         0         0
         0         0         0         0         0         0         0         0
         0         0         0         0         0         0         0         0
         0         0         0         0         0         0         0         0
         0         0
         0         0         0         0         0         0         0         0
         0         0         0         0         0         0         0         0
         0         0         0         0         0         0         0         0
         0         0         0         0         0         0         0         0
         0         0         0         0         0         0         0         0
         0         0         0         0         0         0         0         0
         0         0         0         0         0         0         0         0
         0         0         0         0         0         0         0         0
         0         0         0         0         0         0         0         0
         0         0         0         0         0         0         0         0
         0         0         0         0         0         0         0         0
         0         0         0         0         0         0         0         0
         0         0         0         0         0         0         0         0
         0         0         0         0         0         0         0         0
         0         0         0         0         0         0         0         0
         0         0         0         0         0         0         0         0
         0         0         0         0         0         0         0         0
         0         0         0         0         0         0         0         0
         0         0         0         0         0         0         0         0
         0         0         0         0         0         0         0         0
         0         0         0         0         0         0         0         0
         0         0         0         0         0         0         0         0
         0         0         0         0         0         0         0         0
         0         0         0         0         0         0         0         0
         0         0         0         0         0         0         0         0
         0         0         0         0         0         0         0         0
         0         0         0         0         0         0         0         0
         0         0         0         0         0         0         0         0
         0         0         0         0         0         0         0         0
         0         0         0         0         0         0         0         0
         0         0         0         0         0         0         0         0
         0         0         0         0         0         0         0         0
         0         0         0         0         0         0         0         0
         0         0         0         0         0         0         0         0
         0         0         0         0         0         0         0         0
         0         0         0         0         0         0         0         0
         0         0         0         0         0         0         0         0
         0         0         0         0         0         0         0         0
         0         0         0         0         0         0         0         0
         0         0         0         0         0         0         0         0
         0         0         0         0         0         0         0         0
         0         0         0         0         0         0         0         0
         0         0         0         0         0         0         0         0
         0         0         0         0         0         0         0         0
         0         0         0         0         0         0         0         0
         0         0         0         0         0         0         0         0
         0         0         0         0         0         0         0         0
         0         0         0         0         0         0         0         0
         0         0         0         0         0         0         0         0
         0         0         0         0         0         0         0         0
         0         0         0         0         0         0         0         0
         0         0         0         0         0         0         0         0
         0         0         0         0         0         0         0         0
         0         0         0         0         0         0         0         0
         0         0         0         0         0         0         0         0
         0         0         0         0         0         0         0         0
         0         0         0         0         0         0         0         0
         0         0         0         0         0         0         0         0
         0         0         0         0         0         0         0         0
         0         0         0         0         0         0         0         0
         0         0         0         0         0         0         0         0
         0         0         0         0         0         0         0         0
         0         0         0         0         0         0         0         0
         0         0         0         0         0         0         0         0
         0         0         0         0         0         0         0         0
         0         0         0         0         0         0         0         0
         0         0         0         0         0         0         0         0
         0         0         0         0         0         0         0         0
         0         0         0         0         0         0         0         0
         0         0         0         0         0         0         0         0
         0         0         0         0         0         0         0         0
         0         0         0         0         0         0         0         0
         0         0         0         0         0         0         0         0
         0         0         0         0         0         0         0         0
         0         0         0         0         0         0         0         0
         0         0         0         0         0         0         0         0
         0         0         0         0         0         0         0         0
         0         0         0         0         0         0         0         0
         0         0         0         0         0         0         0         0
         0         0         0         0         0         0         0         0
         0         0         0         0         0         0         0         0
         0         0         0         0         0         0         0         0
         0         0         0         0         0         0         0         0
         0         0         0         0         0         0         0         0
         0         0         0         0         0         0         0         0
         0         0         0         0         0         0         0         0
         0         0         0         0         0         0         0         0
         0         0         0         0         0         0         0         0
         0         0         0         0         0         0         0         0
         0         0         0         0         0         0         0         0
         0         0         0         0         0         0         0         0
         0         0         0         0         0         0         0         0
         0         0         0         0         0         0         0         0
         0         0         0         0         0         0         0         0
         0         0         0         0         0         0         0         0
         0         0         0         0         0         0         0         0
         0         0         0         0         0         0         0         0
         0         0         0         0         0         0         0         0
         0         0         0         0         0         0         0         0
         0         0         0         0         0         0         0         0
         0         0         0         0         0         0         0         0
         0         0         0         0         0         0         0         0
         0         0         0         0         0         0         0         0
         0         0         0         0         0         0         0         0
         0         0         0         0         0         0         0         0
         0         0         0         0         0         0         0         0
         0         0         0         0         0         0         0         0
         0         0         0         0         0         0         0         0
         0         0         0         0         0         0         0         0
         0         0         0         0         0         0         0         0
         0         0         0         0         0         0         0         0
         0         0         0         0         0         0         0         0
         0         0         0         0         0         0         0         0
         0         0         0         0         0         0         0         0
         0         0         0         0         0         0         0         0
         0         0         0         0         0         0         0         0
         0         0         0         0         0         0         0         0
         0         0         0         0         0         0         0         0
         0         0         0         0         0         0         0         0
         0         0         0         0         0         0         0         0
         0         0         0         0         0         0         0         0
         0         0         0         0         0         0         0         0
         0         0         0         0         0         0         0         0
         0         0         0         0         0         0         0         0
         0         0         0         0         0         0         0         0
         0         0         0         0         0         0         0         0
         0         0         0         0         0         0         0         0
         0         0         0         0         0         0         0         0
         0         0         0         0         0         0         0         0
         0         0         0         0         0         0         0         0
         0         0         0         0         0         0         0         0
         0         0         0         0         0         0         0         0
         0         0         0         0         0         0         0         0
         0         0         0         0         0         0         0         0
         0         0         0         0         0         0         0         0
         0         0         0         0         0         0         0         0
         0         0         0         0         0         0         0         0
         0         0         0         0         0         0         0         0
         0         0         0         0         0         0         0         0
         0         0         0         0         0         0         0         0
         0         0         0         0         0         0         0         0
         0         0         0         0         0         0         0         0
         0         0         0         0         0         0         0         0
         0         0         0         0         0         0         0         0
         0         0         0         0         0         0         0         0
         0         0         0         0         0         0         0         0
         0         0         0         0         0         0         0         0
         0         0         0         0         0         0         0         0
         0         0         0         0         0         0         0         0
         0         0         0         0         0         0         0         0
         0         0         0         0         0         0         0         0
         0         0         0         0         0         0         0         0
         0         0         0         0         0         0         0         0
         0         0         0         0         0         0         0         0
         0         0         0         0         0         0         0         0
         0         0         0         0         0         0         0         0
         0         0         0         0         0         0         0         0
         0         0         0         0         0         0         0         0
         0         0         0         0         0         0         0         0
         0         0         0         0         0         0         0         0
         0         0         0         0         0         0         0         0
         0         0         0         0         0         0         0         0
         0         0         0         0         0         0         0         0
         0         0         0         0         0         0         0         0
         0         0         0         0         0         0         0         0
         0         0         0         0         0         0         0         0
         0         0         0         0         0         0         0         0
         0         0         0         0         0         0         0         0
         0         0         0         0         0         0         0         0
         0         0         0         0         0         0         0         0
         0         0         0         0         0         0         0         0
         0         0         0         0         0         0         0         0
         0         0         0         0         0         0         0         0
         0         0         0         0         0         0         0         0
         0         0         0         0         0         0         0         0
         0         0         0         0         0         0         0         0
         0         0         0         0         0         0         0         0
         0         0         0         0         0         0         0         0
         0         0         0         0         0         0         0         0
         0         0         0         0         0         0         0         0
         0         0         0         0         0         0         0         0
         0         0         0         0         0         0         0         0
         0         0         0         0         0         0         0         0
         0         0         0         0         0         0         0         0
         0         0         0         0         0         0         0         0
         0         0         0         0         0         0         0         0
         0         0         0         0         0         0         0         0
         0         0         0         0         0         0         0         0
         0         0         0         0         0         0         0         0
         0         0         0         0         0         0         0         0
         0         0         0         0         0         0         0         0
         0         0         0         0         0         0         0         0
         0         0         0         0         0         0         0         0
         0         0         0         0         0         0         0         0
         0         0         0         0         0         0         0         0
         0         0         0         0         0         0         0         0
         0         0         0         0         0         0         0         0
         0         0         0         0         0         0         0         0
         0         0         0         0         0         0         0         0
         0         0         0         0         0         0         0         0
         0         0         0         0         0         0         0         0
         0         0         0         0         0         0         0         0
         0         0         0         0         0         0         0         0
         0         0         0         0         0         0         0         0
         0         0         0         0         0         0         0         0
         0         0         0         0         0         0         0         0
         0         0         0         0         0         0         0         0
         0         0         0         0         0         0         0         0
         0         0         0         0         0         0         0         0
         0         0         0         0         0         0         0         0
         0         0         0         0         0         0         0         0
         0         0         0         0         0         0         0         0
         0         0         0         0         0         0         0         0
         0         0         0         0         0         0         0         0
         0         0         0         0         0         0         0         0
         0         0         0         0         0         0         0         0
         0         0         0         0         0         0         0         0
         0         0         0         0         0         0         0         0
         0         0         0         0         0         0         0         0
         0         0         0         0         0         0         0         0
         0         0         0         0         0         0         0         0
         0         0         0         0         0         0         0         0
         0         0         0         0         0         0         0         0
         0         0         0         0         0         0         0         0
         0         0         0         0         0         0         0         0
         0         0         0         0         0         0         0         0
         0         0         0         0         0         0         0         0
         0         0         0         0         0         0         0         0
         0         0         0         0         0         0         0         0
         0         0         0         0         0         0         0         0
         0         0         0         0         0         0         0         0
         0         0         0         0         0         0         0         0
         0         0         0         0         0         0         0         0
         0         0         0         0         0         0         0         0
         0         0         0         0         0         0         0         0
         0         0         0         0         0         0         0         0
         0         0         0         0         0         0         0         0
         0         0         0         0         0         0         0         0
         0         0         0         0         0         0         0         0
         0         0         0         0         0         0         0         0
         0         0         0         0         0         0         0         0
         0         0         0         0         0         0         0         0
         0         0         0         0         0         0         0         0
         0         0         0         0         0         0         0         0
         0         0         0         0         0         0         0         0
         0         0         0         0         0         0         0         0
         0         0         0         0         0         0         0         0
         0         0         0         0         0         0         0         0
         0         0         0         0         0         0         0         0
         0         0         0         0         0         0         0         0
         0         0         0         0         0         0         0         0
         0         0         0         0         0         0         0         0
         0         0         0         0         0         0         0         0
         0         0         0         0         0         0         0         0
         0         0         0         0         0         0         0         0
         0         0         0         0         0         0         0         0
         0         0         0         0         0         0         0         0
         0         0         0         0         0         0         0         0
         0         0         0         0         0         0         0         0
         0         0         0         0         0         0         0         0
         0         0         0         0         0         0         0         0
         0         0         0         0         0         0         0         0
         0         0         0         0         0         0         0         0
         0         0         0         0         0         0         0         0
         0         0         0         0         0         0         0         0
         0         0         0         0         0         0         0         0
         0         0         0         0         0         0         0         0
         0         0         0         0         0         0         0         0
         0         0         0         0         0         0         0         0
         0         0         0         0         0         0         0         0
         0         0         0         0         0         0         0         0
         0         0         0         0         0         0         0         0
         0         0         0         0         0         0         0         0
         0         0         0         0         0         0         0         0
         0         0         0         0         0         0         0         0
         0         0         0         0         0         0         0         0
         0         0         0         0         0         0         0         0
         0         0         0         0         0         0         0         0
         0         0         0         0         0         0         0         0
         0         0         0         0         0         0         0         0
         0         0         0         0         0         0         0         0
         0         0         0         0         0         0         0         0
         0         0         0         0         0         0         0         0
         0         0         0         0         0         0         0         0
         0         0         0         0         0         0         0         0
         0         0         0         0         0         0         0         0
         0         0         0         0         0         0         0         0
         0         0         0         0         0         0         0         0
         0         0         0         0         0         0         0         0
         0         0         0         0         0         0         0         0
         0         0         0         0         0         0         0         0
         0         0         0         0         0         0         0         0
         0         0         0         0         0         0         0         0
         0         0         0         0         0         0         0         0
         0         0         0         0         0         0         0         0
         0         0         0         0         0         0         0         0
         0         0         0         0         0         0         0         0
         0         0         0         0         0         0         0         0
         0         0         0         0         0         0         0         0
         0         0         0         0         0         0         0         0
         0         0         0         0         0         0         0         0
         0         0         0         0         0         0         0         0
         0         0         0         0         0         0         0         0
         0         0         0         0         0         0         0         0
         0         0         0         0         0         0         0         0
         0         0         0         0         0         0         0         0
         0         0         0         0         0         0         0         0
         0         0         0         0         0         0         0         0
         0         0         0         0         0         0         0         0
         0         0         0         0         0         0         0         0
         0         0         0         0         0         0         0         0
         0         0         0         0         0         0         0         0
         0         0         0         0         0         0         0         0
         0         0         0         0         0         0         0         0
         0         0         0         0         0         0         0         0
         0         0         0         0         0         0         0         0
         0         0         0         0         0         0         0         0
         0         0         0         0         0         0         0         0
         0         0         0         0         0         0         0         0
         0         0         0         0         0         0         0         0
         0         0         0         0         0         0         0         0
         0         0         0         0         0         0         0         0
         0         0         0         0         0         0         0         0
         0         0         0         0         0         0         0         0
         0         0         0         0         0         0         0         0
         0         0         0         0         0         0         0         0
         0         0         0         0         0         0         0         0
         0         0         0         0         0         0         0         0
         0         0         0         0         0         0         0         0
         0         0         0         0         0         0         0         0
         0         0         0         0         0         0         0         0
         0         0         0         0         0         0         0         0
         0         0         0         0         0         0         0         0
         0         0         0         0         0         0         0         0
         0         0         0         0         0         0         0         0
         0         0         0         0         0         0         0         0
         0         0         0         0         0         0         0         0
         0         0         0         0         0         0         0         0
         0         0         0         0         0         0         0         0
         0         0         0         0         0         0         0         0
         0         0         0         0         0         0         0         0
         0         0         0         0         0         0         0         0
         0         0         0         0         0         0         0         0
         0         0         0         0         0         0         0         0
         0         0         0         0         0         0         0         0
         0         0         0         0         0         0         0         0
         0         0         0         0         0         0         0         0
         0         0         0         0         0         0         0         0
         0         0         0         0         0         0         0         0
         0         0         0         0         0         0         0         0
         0         0         0         0         0         0         0         0
         0         0         0         0         0         0         0         0
         0         0         0         0         0         0         0         0
         0         0         0         0         0         0         0         0
         0         0         0         0         0         0         0         0
         0         0         0         0         0         0         0         0
         0         0         0         0         0         0         0         0
         0         0         0         0         0         0         0         0
         0         0         0         0         0         0         0         0
         0         0         0         0         0         0         0         0
         0         0         0         0         0         0         0         0
         0         0         0         0         0         0         0         0
         0         0         0         0         0         0         0         0
         0         0         0         0         0         0         0         0
         0         0         0         0         0         0         0         0
         0         0         0         0         0         0         0         0
         0         0         0         0         0         0         0         0
         0         0         0         0         0         0         0         0
         0         0         0         0         0         0         0         0
         0         0         0         0         0         0         0         0
         0         0         0         0         0         0         0         0
         0         0         0         0         0         0         0         0
         0         0         0         0         0         0         0         0
         0         0         0         0         0         0         0         0
         0         0         0         0         0         0         0         0
         0         0         0         0         0         0         0         0
         0         0         0         0         0         0         0         0
         0         0         0         0         0         0         0         0
         0         0         0         0         0         0         0         0
         0         0         0         0         0         0         0         0
         0         0         0         0         0         0         0         0
         0         0         0         0         0         0         0         0
         0         0         0         0         0         0         0         0
         0         0         0         0         0         0         0         0
         0         0         0         0         0         0         0         0
         0         0         0         0         0         0         0         0
         0         0         0         0         0         0         0         0
         0         0         0         0         0         0         0         0
         0         0         0         0         0         0         0         0
         0         0         0         0         0         0         0         0
         0         0         0         0         0         0         0         0
         0         0         0         0         0         0         0         0
         0         0         0         0         0         0         0         0
         0         0         0         0         0         0         0         0
         0         0         0         0         0         0         0         0
         0         0         0         0         0         0         0         0
         0         0         0         0         0         0         0         0
         0         0         0         0         0         0         0         0
         0         0         0         0         0         0         0         0
         0         0         0         0         0         0         0         0
         0         0         0         0         0         0         0         0
         0         0         0         0         0         0         0         0
         0         0         0         0         0         0         0         0
         0         0         0         0         0         0         0         0
         0         0         0         0         0         0         0         0
         0         0         0         0         0         0         0         0
         0         0         0         0         0         0         0         0
         0         0         0         0         0         0         0         0
         0         0         0         0         0         0         0         0
         0         0         0         0         0         0         0         0
         0         0         0         0         0         0         0         0
         0         0         0         0         0         0         0         0
         0         0         0         0         0         0         0         0
         0         0         0         0         0         0         0         0
         0         0         0         0         0         0         0         0
         0         0         0         0         0         0         0         0
         0         0         0         0         0         0         0         0
         0         0         0         0         0         0         0         0
         0         0         0         0         0         0         0         0
         0         0         0         0         0         0         0         0
         0         0         0         0         0         0         0         0
         0         0         0         0         0         0         0         0
         0         0         0         0         0         0         0         0
         0         0         0         0         0         0         0         0
         0         0         0         0         0         0         0         0
         0         0         0         0         0         0         0         0
         0         0         0         0         0         0         0         0
         0         0         0         0         0         0         0         0
         0         0         0         0         0         0         0         0
         0         0         0         0         0         0         0         0
         0         0         0         0         0         0         0         0
         0         0         0         0         0         0         0         0
         0         0         0         0         0         0         0         0
         0         0         0         0         0         0         0         0
         0         0         0         0         0         0         0         0
         0         0         0         0         0         0         0         0
         0         0         0         0         0         0         0         0
         0         0         0         0         0         0         0         0
         0         0         0         0         0         0         0         0
         0         0         0         0         0         0         0         0
         0         0         0         0         0         0         0         0
         0         0         0         0         0         0         0         0
         0         0         0         0         0         0         0         0
         0         0         0         0         0         0         0         0
         0         0         0         0         0         0         0         0
         0         0         0         0         0         0         0         0
         0         0         0         0         0         0         0         0
         0         0         0         0         0         0         0         0
         0         0         0         0         0         0         0         0
         0         0         0         0         0         0         0         0
         0         0         0         0         0         0         0         0
         0         0         0         0         0         0         0         0
         0         0         0         0         0         0         0         0
         0         0         0         0         0         0         0         0
         0         0         0         0         0         0         0         0
         0         0         0         0         0         0         0         0
         0         0         0         0         0         0         0         0
         0         0         0         0         0         0         0         0
         0         0         0         0         0         0         0         0
         0         0         0         0         0         0         0         0
         0         0         0         0         0         0         0         0
         0         0         0         0         0         0         0         0
         0         0         0         0         0         0         0         0
         0         0         0         0         0         0         0         0
         0         0         0         0         0         0         0         0
         0         0         0         0         0         0         0         0
         0         0         0         0         0         0         0         0
         0         0         0         0         0         0         0         0
         0         0         0         0         0         0         0         0
         0         0         0         0         0         0         0         0
         0         0         0         0         0         0         0         0
         0         0         0         0         0         0         0         0
         0         0         0         0         0         0         0         0
         0         0         0         0         0         0         0         0
         0         0         0         0         0         0         0         0
         0         0         0         0         0         0         0         0
         0         0         0         0         0         0         0         0
         0         0         0         0         0         0         0         0
         0         0         0         0         0         0         0         0
         0         0         0         0         0         0         0         0
         0         0         0         0         0         0         0         0
         0         0         0         0         0         0         0         0
         0         0         0         0         0         0         0         0
         0         0         0         0         0         0         0         0
         0         0         0         0         0         0         0         0
         0         0         0         0         0         0         0         0
         0         0         0         0         0         0         0         0
         0         0         0         0         0         0         0         0
         0         0         0         0         0         0         0         0
         0         0         0         0         0         0         0         0
         0         0         0         0         0         0         0         0
         0         0         0         0         0         0         0         0
         0         0         0         0         0         0         0         0
         0         0         0         0         0         0         0         0
         0         0         0         0         0         0         0         0
         0         0         0         0         0         0         0         0
         0         0         0         0         0         0         0         0
         0         0         0         0         0         0         0         0
         0         0         0         0         0         0         0         0
         0         0         0         0         0         0         0         0
         0         0         0         0         0         0         0         0
         0         0         0         0         0         0         0         0
         0         0         0         0         0         0         0         0
         0         0         0         0         0         0         0         0
         0         0         0         0         0         0         0         0
         0         0         0         0         0         0         0         0
         0         0         0         0         0         0         0         0
         0         0         0         0         0         0         0         0
         0         0         0         0         0         0         0         0
         0         0         0         0         0         0         0         0
         0         0         0         0         0         0         0         0
         0         0         0         0         0         0         0         0
         0         0         0         0         0         0         0         0
         0         0         0         0         0         0         0         0
         0         0         0         0         0         0         0         0
         0         0         0         0         0         0         0         0
         0         0         0         0         0         0         0         0
         0         0         0         0         0         0         0         0
         0         0         0         0         0         0         0         0
         0         0         0         0         0         0         0         0
         0         0         0         0         0         0         0         0
         0         0         0         0         0         0         0         0
         0         0         0         0         0         0         0         0
         0         0         0         0         0         0         0         0
         0         0         0         0         0         0         0         0
         0         0         0         0         0         0         0         0
         0         0         0         0         0         0         0         0
         0         0         0         0         0         0         0         0
         0         0         0         0         0         0         0         0
         0         0         0         0         0         0         0         0
         0         0         0         0         0         0         0         0
         0         0         0         0         0         0         0         0
         0         0         0         0         0         0         0         0
         0         0         0         0         0         0         0         0
         0         0         0         0         0         0         0         0
         0         0         0         0         0         0         0         0
         0         0         0         0         0         0         0         0
         0         0         0         0         0         0         0         0
         0         0         0         0         0         0         0         0
         0         0         0         0         0         0         0         0
         0         0         0         0         0         0         0         0
         0         0         0         0         0         0         0         0
         0         0         0         0         0         0         0         0
         0         0         0         0         0         0         0         0
         0         0         0         0         0         0         0         0
         0         0         0         0         0         0         0         0
         0         0         0         0         0         0         0         0
         0         0         0         0         0         0         0         0
         0         0         0         0         0         0         0         0
         0         0         0         0         0         0         0         0
         0         0         0         0         0         0         0         0
         0         0         0         0         0         0         0         0
         0         0         0         0         0         0         0         0
         0         0         0         0         0         0         0         0
         0         0         0         0         0         0         0         0
         0         0         0         0         0         0         0         0
         0         0         0         0         0         0         0         0
         0         0         0         0         0         0         0         0
         0         0         0         0         0         0         0         0
         0         0         0         0         0         0         0         0
         0         0         0         0         0         0         0         0
         0         0         0         0         0         0         0         0
         0         0         0         0         0         0         0         0
         0         0         0         0         0         0         0         0
         0         0         0         0         0         0         0         0
         0         0         0         0         0         0         0         0
         0         0         0         0         0         0         0         0
         0         0         0         0         0         0         0         0
         0         0         0         0         0         0         0         0
         0         0         0         0         0         0         0         0
         0         0         0         0         0         0         0         0
         0         0         0         0         0         0         0         0
         0         0         0         0         0         0         0         0
         0         0         0         0         0         0         0         0
         0         0         0         0         0         0         0         0
         0         0         0         0         0         0         0         0
         0         0         0         0         0         0         0         0
         0         0         0         0         0         0         0         0
         0         0         0         0         0         0         0         0
         0         0         0         0         0         0         0         0
         0         0         0         0         0         0         0         0
         0         0         0         0         0         0         0         0
         0         0         0         0         0         0         0         0
         0         0         0         0         0         0         0         0
         0         0         0         0         0         0         0         0
         0         0         0         0         0         0         0         0
         0         0         0         0         0         0         0         0
         0         0         0         0         0         0         0         0
         0         0         0         0         0         0         0         0
         0         0         0         0         0         0         0         0
         0         0         0         0         0         0         0         0
         0         0         0         0         0         0         0         0
         0         0         0         0         0         0         0         0
         0         0         0         0         0         0         0         0
         0         0         0         0         0         0         0         0
         0         0         0         0         0         0         0         0
         0         0         0         0         0         0         0         0
         0         0         0         0         0         0         0         0
         0         0         0         0         0         0         0         0
         0         0         0         0         0         0         0         0
         0         0         0         0         0         0         0         0
         0         0         0         0         0         0         0         0
         0         0         0         0         0         0         0         0
         0         0         0         0         0         0         0         0
         0         0         0         0         0         0         0         0
         0         0         0         0         0         0         0         0
         0         0         0         0         0         0         0         0
         0         0         0         0         0         0         0         0
         0         0         0         0         0         0         0         0
         0         0         0         0         0         0         0         0
         0         0         0         0         0         0         0         0
         0         0         0         0         0         0         0         0
         0         0         0         0         0         0         0         0
         0         0         0         0         0         0         0         0
         0         0         0         0         0         0         0         0
         0         0         0         0         0         0         0         0
         0         0         0         0         0         0         0         0
         0         0         0         0         0         0         0         0
         0         0         0         0         0         0         0         0
         0         0         0         0         0         0         0         0
         0         0         0         0         0         0         0         0
         0         0         0         0         0         0         0         0
         0         0         0         0         0         0         0         0
         0         0         0         0         0         0         0         0
         0         0         0         0         0         0         0         0
         0         0         0         0         0         0         0         0
         0         0         0         0         0         0         0         0
         0         0         0         0         0         0         0         0
         0         0         0         0         0         0         0         0
         0         0         0         0         0         0         0         0
         0         0         0         0         0         0         0         0
         0         0         0         0         0         0         0         0
         0         0         0         0         0         0         0         0
         0         0         0         0         0         0         0         0
         0         0         0         0         0         0         0         0
         0         0         0         0         0         0         0         0
         0         0         0         0         0         0         0         0
         0         0         0         0         0         0         0         0
         0         0         0         0         0         0         0         0
         0         0         0         0         0         0         0         0
         0         0         0         0         0         0         0         0
         0         0         0         0         0         0         0         0
         0         0         0         0         0         0         0         0
         0         0         0         0         0         0         0         0
         0         0         0         0         0         0         0         0
         0         0         0         0         0         0         0         0
         0         0         0         0         0         0         0         0
         0         0
         2         1         3         0         1
         5         4         6         0         1
         8         7         9         0         1
        11        10        12         0         1
        14        13        15         0         1
        17        16        18         0         1
        20        19        21         0         1
        23        22        24         0         1
        26        25        27         0         1
        29        28        30         0         1
        32        31        33         0         1
        35        34        36         0         1
        38        37        39         0         1
        41        40        42         0         1
        44        43        45         0         1
        47        46        48         0         1
        50        49        51         0         1
        53        52        54         0         1
        56        55        57         0         1
        59        58        60         0         1
        62        61        63         0         1
        65        64        66         0         1
        68        67        69         0         1
        71        70        72         0         1
        74        73        75         0         1
        77        76        78         0         1
        80        79        81         0         1
        83        82        84         0         1
        86        85        87         0         1
        89        88        90         0         1
        92        91        93         0         1
        95        94        96         0         1
        98        97        99         0         1
       101       100       102         0         1
       104       103       105         0         1
       107       106       108         0         1
       110       109       111         0         1
       113       112       114         0         1
       116       115       117         0         1
       119       118       120         0         1
       122       121       123         0         1
       125       124       126         0         1
       128       127       129         0         1
       131       130       132         0         1
       134       133       135         0         1
       137       136       138         0         1
       140       139       141         0         1
       143       142       144         0         1
       146       145       147         0         1
       149       148       150         0         1
       152       151       153         0         1
       155       154       156         0         1
       158       157       159         0         1
       161       160       162         0         1
       164       163       165         0         1
       167       166       168         0         1
       170       169       171         0         1
       173       172       174         0         1
       176       175       177         0         1
       179       178       180         0         1
       182       181       183         0         1
       185       184       186         0         1
       188       187       189         0         1
       191       190       192         0         1
       194       193       195         0         1
       197       196       198         0         1
       200       199       201         0         1
       203       202       204         0         1
       206       205       207         0         1
       209       208       210         0         1
       212       211       213         0         1
       215       214       216         0         1
       218       217       219         0         1
       221       220       222         0         1
       224       223       225         0         1
       227       226       228         0         1
       230       229       231         0         1
       233       232       234         0         1
       236       235       237         0         1
       239       238       240         0         1
       242       241       243         0         1
       245       244       246         0         1
       248       247       249         0         1
       251       250       252         0         1
       254       253       255         0         1
       257       256       258         0         1
       260       259       261         0         1
       263       262       264         0         1
       266       265       267         0         1
       269       268       270         0         1
       272       271       273         0         1
       275       274       276         0         1
       278       277       279         0         1
       281       280       282         0         1
       284       283       285         0         1
       287       286       288         0         1
       290       289       291         0         1
       293       292       294         0         1
       296       295       297         0         1
       299       298       300         0         1
       302       301       303         0         1
       305       304       306         0         1
       308       307       309         0         1
       311       310       312         0         1
       314       313       315         0         1
       317       316       318         0         1
       320       319       321         0         1
       323       322       324         0         1
       326       325       327         0         1
       329       328       330         0         1
       332       331       333         0         1
       335       334       336         0         1
       338       337       339         0         1
       341       340       342         0         1
       344       343       345         0         1
       347       346       348         0         1
       350       349       351         0         1
       353       352       354         0         1
       356       355       357         0         1
       359       358       360         0         1
       362       361       363         0         1
       365       364       366         0         1
       368       367       369         0         1
       371       370       372         0         1
       374       373       375         0         1
       377       376       378         0         1
       380       379       381         0         1
       383       382       384         0         1
       386       385       387         0         1
       389       388       390         0         1
       392       391       393         0         1
       395       394       396         0         1
       398       397       399         0         1
       401       400       402         0         1
       404       403       405         0         1
       407       406       408         0         1
       410       409       411         0         1
       413       412       414         0         1
       416       415       417         0         1
       419       418       420         0         1
       422       421       423         0         1
       425       424       426         0         1
       428       427       429         0         1
       431       430       432         0         1
       434       433       435         0         1
       437       436       438         0         1
       440       439       441         0         1
       443       442       444         0         1
       446       445       447         0         1
       449       448       450         0         1
       452       451       453         0         1
       455       454       456         0         1
       458       457       459         0         1
       461       460       462         0         1
       464       463       465         0         1
       467       466       468         0         1
       470       469       471         0         1
       473       472       474         0         1
       476       475       477         0         1
       479       478       480         0         1
       482       481       483         0         1
       485       484       486         0         1
       488       487       489         0         1
       491       490       492         0         1
       494       493       495         0         1
       497       496       498         0         1
       500       499       501         0         1
       503       502       504         0         1
       506       505       507         0         1
       509       508       510         0         1
       512       511       513         0         1
       515       514       516         0         1
       518       517       519         0         1
       521       520       522         0         1
       524       523       525         0         1
       527       526       528         0         1
       530       529       531         0         1
       533       532       534         0         1
       536       535       537         0         1
       539       538       540         0         1
       542       541       543         0         1
       545       544       546         0         1
       548       547       549         0         1
       551       550       552         0         1
       554       553       555         0         1
       557       556       558         0         1
       560       559       561         0         1
       563       562       564         0         1
       566       565       567         0         1
       569       568       570         0         1
       572       571       573         0         1
       575       574       576         0         1
       578       577       579         0         1
       581       580       582         0         1
       584       583       585         0         1
       587       586       588         0         1
       590       589       591         0         1
       593       592       594         0         1
       596       595       597         0         1
       599       598       600         0         1
       602       601       603         0         1
       605       604       606         0         1
       608       607       609         0         1
       611       610       612         0         1
       614       613       615         0         1
       617       616       618         0         1
       620       619       621         0         1
       623       622       624         0         1
       626       625       627         0         1
       629       628       630         0         1
       632       631       633         0         1
       635       634       636         0         1
       638       637       639         0         1
       641       640       642         0         1
       644       643       645         0         1
       647       646       648         0         1
       650       649       651         0         1
       653       652       654         0         1
       656       655       657         0         1
       659       658       660         0         1
       662       661       663         0         1
       665       664       666         0         1
       668       667       669         0         1
       671       670       672         0         1
       674       673       675         0         1
       677       676       678         0         1
       680       679       681         0         1
       683       682       684         0         1
       686       685       687         0         1
       689       688       690         0         1
       692       691       693         0         1
       695       694       696         0         1
       698       697       699         0         1
       701       700       702         0         1
       704       703       705         0         1
       707       706       708         0         1
       710       709       711         0         1
       713       712       714         0         1
       716       715       717         0         1
       719       718       720         0         1
       722       721       723         0         1
       725       724       726         0         1
       728       727       729         0         1
       731       730       732         0         1
       734       733       735         0         1
       737       736       738         0         1
       740       739       741         0         1
       743       742       744         0         1
       746       745       747         0         1
       749       748       750         0         1
       752       751       753         0         1
       755       754       756         0         1
       758       757       759         0         1
       761       760       762         0         1
       764       763       765         0         1
       767       766       768         0         1
       770       769       771         0         1
       773       772       774         0         1
       776       775       777         0         1
       779       778       780         0         1
       782       781       783         0         1
       785       784       786         0         1
       788       787       789         0         1
       791       790       792         0         1
       794       793       795         0         1
       797       796       798         0         1
       800       799       801         0         1
       803       802       804         0         1
       806       805       807         0         1
       809       808       810         0         1
       812       811       813         0         1
       815       814       816         0         1
       818       817       819         0         1
       821       820       822         0         1
       824       823       825         0         1
       827       826       828         0         1
       830       829       831         0         1
       833       832       834         0         1
       836       835       837         0         1
       839       838       840         0         1
       842       841       843         0         1
       845       844       846         0         1
       848       847       849         0         1
       851       850       852         0         1
       854       853       855         0         1
       857       856       858         0         1
       860       859       861         0         1
       863       862       864         0         1
       866       865       867         0         1
       869       868       870         0         1
       872       871       873         0         1
       875       874       876         0         1
       878       877       879         0         1
       881       880       882         0         1
       884       883       885         0         1
       887       886       888         0         1
       890       889       891         0         1
       893       892       894         0         1
       896       895       897         0         1
       899       898       900         0         1
       902       901       903         0         1
       905       904       906         0         1
       908       907       909         0         1
       911       910       912         0         1
       914       913       915         0         1
       917       916       918         0         1
       920       919       921         0         1
       923       922       924         0         1
       926       925       927         0         1
       929       928       930         0         1
       932       931       933         0         1
       935       934       936         0         1
       938       937       939         0         1
       941       940       942         0         1
       944       943       945         0         1
       947       946       948         0         1
       950       949       951         0         1
       953       952       954         0         1
       956       955       957         0         1
       959       958       960         0         1
       962       961       963         0         1
       965       964       966         0         1
       968       967       969         0         1
       971       970       972         0         1
       974       973       975         0         1
       977       976       978         0         1
       980       979       981         0         1
       983       982       984         0         1
       986       985       987         0         1
       989       988       990         0         1
       992       991       993         0         1
       995       994       996         0         1
       998       997       999         0         1
      1001      1000      1002         0         1
      1004      1003      1005         0         1
      1007      1006      1008         0         1
      1010      1009      1011         0         1
      1013      1012      1014         0         1
      1016      1015      1017         0         1
      1019      1018      1020         0         1
      1022      1021      1023         0         1
      1025      1024      1026         0         1
      1028      1027      1029         0         1
      1031      1030      1032         0         1
      1034      1033      1035         0         1
      1037      1036      1038         0         1
      1040      1039      1041         0         1
      1043      1042      1044         0         1
      1046      1045      1047         0         1
      1049      1048      1050         0         1
      1052      1051      1053         0         1
      1055      1054      1056         0         1
      1058      1057      1059         0         1
      1061      1060      1062         0         1
      1064      1063      1065         0         1
      1067      1066      1068         0         1
      1070      1069      1071         0         1
      1073      1072      1074         0         1
      1076      1075      1077         0         1
      1079      1078      1080         0         1
      1082      1081      1083         0         1
      1085      1084      1086         0         1
      1088      1087      1089         0         1
      1091      1090      1092         0         1
      1094      1093      1095         0         1
      1097      1096      1098         0         1
      1100      1099      1101         0         1
      1103      1102      1104         0         1
      1106      1105      1107         0         1
      1109      1108      1110         0         1
      1112      1111      1113         0         1
      1115      1114      1116         0         1
      1118      1117      1119         0         1
      1121      1120      1122         0         1
      1124      1123      1125         0         1
      1127      1126      1128         0         1
      1130      1129      1131         0         1
      1133      1132      1134         0         1
      1136      1135      1137         0         1
      1139      1138      1140         0         1
      1142      1141      1143         0         1
      1145      1144      1146         0         1
      1148      1147      1149         0         1
      1151      1150      1152         0         1
      1154      1153      1155         0         1
      1157      1156      1158         0         1
      1160      1159      1161         0         1
      1163      1162      1164         0         1
      1166      1165      1167         0         1
      1169      1168      1170         0         1
      1172      1171      1173         0         1
      1175      1174      1176         0         1
      1178      1177      1179         0         1
      1181      1180      1182         0         1
      1184      1183      1185         0         1
      1187      1186      1188         0         1
      1190      1189      1191         0         1
      1193      1192      1194         0         1
      1196      1195      1197         0         1
      1199      1198      1200         0         1
      1202      1201      1203         0         1
      1205      1204      1206         0         1
      1208      1207      1209         0         1
      1211      1210      1212         0         1
      1214      1213      1215         0         1
      1217      1216      1218         0         1
      1220      1219      1221         0         1
      1223      1222      1224         0         1
      1226      1225      1227         0         1
      1229      1228      1230         0         1
      1232      1231      1233         0         1
      1235      1234      1236         0         1
      1238      1237      1239         0         1
      1241      1240      1242         0         1
      1244      1243      1245         0         1
      1247      1246      1248         0         1
      1250      1249      1251         0         1
      1253      1252      1254         0         1
      1256      1255      1257         0         1
      1259      1258      1260         0         1
      1262      1261      1263         0         1
      1265      1264      1266         0         1
      1268      1267      1269         0         1
      1271      1270      1272         0         1
      1274      1273      1275         0         1
      1277      1276      1278         0         1
      1280      1279      1281         0         1
      1283      1282      1284         0         1
      1286      1285      1287         0         1
      1289      1288      1290         0         1
      1292      1291      1293         0         1
      1295      1294      1296         0         1
      1298      1297      1299         0         1
      1301      1300      1302         0         1
      1304      1303      1305         0         1
      1307      1306      1308         0         1
      1310      1309      1311         0         1
      1313      1312      1314         0         1
      1316      1315      1317         0         1
      1319      1318      1320         0         1
      1322      1321      1323         0         1
      1325      1324      1326         0         1
      1328      1327      1329         0         1
      1331      1330      1332         0         1
      1334      1333      1335         0         1
      1337      1336      1338         0         1
      1340      1339      1341         0         1
      1343      1342      1344         0         1
      1346      1345      1347         0         1
      1349      1348      1350         0         1
      1352      1351      1353         0         1
      1355      1354      1356         0         1
      1358      1357      1359         0         1
      1361      1360      1362         0         1
      1364      1363      1365         0         1
      1367      1366      1368         0         1
      1370      1369      1371         0         1
      1373      1372      1374         0         1
      1376      1375      1377         0         1
      1379      1378      1380         0         1
      1382      1381      1383         0         1
      1385      1384      1386         0         1
      1388      1387      1389         0         1
      1391      1390      1392         0         1
      1394      1393      1395         0         1
      1397      1396      1398         0         1
      1400      1399      1401         0         1
      1403      1402      1404         0         1
      1406      1405      1407         0         1
      1409      1408      1410         0         1
      1412      1411      1413         0         1
      1415      1414      1416         0         1
      1418      1417      1419         0         1
      1421      1420      1422         0         1
      1424      1423      1425         0         1
      1427      1426      1428         0         1
      1430      1429      1431         0         1
      1433      1432      1434         0         1
      1436      1435      1437         0         1
      1439      1438      1440         0         1
      1442      1441      1443         0         1
      1445      1444      1446         0         1
      1448      1447      1449         0         1
      1451      1450      1452         0         1
      1454      1453      1455         0         1
      1457      1456      1458         0         1
      1460      1459      1461         0         1
      1463      1462      1464         0         1
      1466      1465      1467         0         1
      1469      1468      1470         0         1
      1472      1471      1473         0         1
      1475      1474      1476         0         1
      1478      1477      1479         0         1
      1481      1480      1482         0         1
      1484      1483      1485         0         1
      1487      1486      1488         0         1
      1490      1489      1491         0         1
      1493      1492      1494         0         1
      1496      1495      1497         0         1
      1499      1498      1500         0         1
      1502      1501      1503         0         1
      1505      1504      1506         0         1
      1508      1507      1509         0         1
      1511      1510      1512         0         1
      1514      1513      1515         0         1
      1517      1516      1518         0         1
      1520      1519      1521         0         1
      1523      1522      1524         0         1
      1526      1525      1527         0         1
      1529      1528      1530         0         1
      1532      1531      1533         0         1
      1535      1534      1536         0         1
      1538      1537      1539         0         1
      1541      1540      1542         0         1
      1544      1543      1545         0         1
      1547      1546      1548         0         1
      1550      1549      1551         0         1
      1553      1552      1554         0         1
      1556      1555      1557         0         1
      1559      1558      1560         0         1
      1562      1561      1563         0         1
      1565      1564      1566         0         1
      1568      1567      1569         0         1
      1571      1570      1572         0         1
      1574      1573      1575         0         1
      1577      1576      1578         0         1
      1580      1579      1581         0         1
      1583      1582      1584         0         1
      1586      1585      1587         0         1
      1589      1588      1590         0         1
      1592      1591      1593         0         1
      1595      1594      1596         0         1
      1598      1597      1599         0         1
      1601      1600      1602         0         1
      1604      1603      1605         0         1
      1607      1606      1608         0         1
      1610      1609      1611         0         1
      1613      1612      1614         0         1
      1616      1615      1617         0         1
      1619      1618      1620         0         1
      1622      1621      1623         0         1
      1625      1624      1626         0         1
      1628      1627      1629         0         1
      1631      1630      1632         0         1
      1634      1633      1635         0         1
      1637      1636      1638         0         1
      1640      1639      1641         0         1
      1643      1642      1644         0         1
      1646      1645      1647         0         1
      1649      1648      1650         0         1
      1652      1651      1653         0         1
      1655      1654      1656         0         1
      1658      1657      1659         0         1
      1661      1660      1662         0         1
      1664      1663      1665         0         1
      1667      1666      1668         0         1
      1670      1669      1671         0         1
      1673      1672      1674         0         1
      1676      1675      1677         0         1
      1679      1678      1680         0         1
      1682      1681      1683         0         1
      1685      1684      1686         0         1
      1688      1687      1689         0         1
      1691      1690      1692         0         1
      1694      1693      1695         0         1
      1697      1696      1698         0         1
      1700      1699      1701         0         1
      1703      1702      1704         0         1
      1706      1705      1707         0         1
      1709      1708      1710         0         1
      1712      1711      1713         0         1
      1715      1714      1716         0         1
      1718      1717      1719         0         1
      1721      1720      1722         0         1
      1724      1723      1725         0         1
      1727      1726      1728         0         1
      1730      1729      1731         0         1
      1733      1732      1734         0         1
      1736      1735      1737         0         1
      1739      1738      1740         0         1
      1742      1741      1743         0         1
      1745      1744      1746         0         1
      1748      1747      1749         0         1
      1751      1750      1752         0         1
      1754      1753      1755         0         1
      1757      1756      1758         0         1
      1760      1759      1761         0         1
      1763      1762      1764         0         1
      1766      1765      1767         0         1
      1769      1768      1770         0         1
      1772      1771      1773         0         1
      1775      1774      1776         0         1
      1778      1777      1779         0         1
      1781      1780      1782         0         1
      1784      1783      1785         0         1
      1787      1786      1788         0         1
      1790      1789      1791         0         1
      1793      1792      1794         0         1
      1796      1795      1797         0         1
      1799      1798      1800         0         1
      1802      1801      1803         0         1
      1805      1804      1806         0         1
      1808      1807      1809         0         1
      1811      1810      1812         0         1
      1814      1813      1815         0         1
      1817      1816      1818         0         1
      1820      1819      1821         0         1
      1823      1822      1824         0         1
      1826      1825      1827         0         1
      1829      1828      1830         0         1
      1832      1831      1833         0         1
      1835      1834      1836         0         1
      1838      1837      1839         0         1
      1841      1840      1842         0         1
      1844      1843      1845         0         1
      1847      1846      1848         0         1
      1850      1849      1851         0         1
      1853      1852      1854         0         1
      1856      1855      1857         0         1
      1859      1858      1860         0         1
      1862      1861      1863         0         1
      1865      1864      1866         0         1
      1868      1867      1869         0         1
      1871      1870      1872         0         1
      1874      1873      1875         0         1
      1877      1876      1878         0         1
      1880      1879      1881         0         1
      1883      1882      1884         0         1
      1886      1885      1887         0         1
      1889      1888      1890         0         1
      1892      1891      1893         0         1
      1895      1894      1896         0         1
      1898      1897      1899         0         1
      1901      1900      1902         0         1
      1904      1903      1905         0         1
      1907      1906      1908         0         1
      1910      1909      1911         0         1
      1913      1912      1914         0         1
      1916      1915      1917         0         1
      1919      1918      1920         0         1
      1922      1921      1923         0         1
      1925      1924      1926         0         1
      1928      1927      1929         0         1
      1931      1930      1932         0         1
      1934      1933      1935         0         1
      1937      1936      1938         0         1
      1940      1939      1941         0         1
      1943      1942      1944         0         1
      1946      1945      1947         0         1
      1949      1948      1950         0         1
      1952      1951      1953         0         1
      1955      1954      1956         0         1
      1958      1957      1959         0         1
      1961      1960      1962         0         1
      1964      1963      1965         0         1
      1967      1966      1968         0         1
      1970      1969      1971         0         1
      1973      1972      1974         0         1
      1976      1975      1977         0         1
      1979      1978      1980         0         1
      1982      1981      1983         0         1
      1985      1984      1986         0         1
      1988      1987      1989         0         1
      1991      1990      1992         0         1
      1994      1993      1995         0         1
      1997      1996      1998         0         1
      2000      1999      2001         0         1
      2003      2002      2004         0         1
      2006      2005      2007         0         1
      2009      2008      2010         0         1
      2012      2011      2013         0         1
      2015      2014      2016         0         1
      2018      2017      2019         0         1
      2021      2020      2022         0         1
      2024      2023      2025         0         1
      2027      2026      2028         0         1
      2030      2029      2031         0         1
      2033      2032      2034         0         1
      2036      2035      2037         0         1
      2039      2038      2040         0         1
      2042      2041      2043         0         1
      2045      2044      2046         0         1
      2048      2047      2049         0         1
      2051      2050      2052         0         1
      2054      2053      2055         0         1
      2057      2056      2058         0         1
      2060      2059      2061         0         1
      2063      2062      2064         0         1
      2066      2065      2067         0         1
      2069      2068      2070         0         1
      2072      2071      2073         0         1
      2075      2074      2076         0         1
      2078      2077      2079         0         1
      2081      2080      2082         0         1
      2084      2083      2085         0         1
      2087      2086      2088         0         1
      2090      2089      2091         0         1
      2093      2092      2094         0         1
      2096      2095      2097         0         1
      2099      2098      2100         0         1
      2102      2101      2103         0         1
      2105      2104      2106         0         1
      2108      2107      2109         0         1
      2111      2110      2112         0         1
      2114      2113      2115         0         1
      2117      2116      2118         0         1
      2120      2119      2121         0         1
      2123      2122      2124         0         1
      2126      2125      2127         0         1
      2129      2128      2130         0         1
      2132      2131      2133         0         1
      2135      2134      2136         0         1
      2138      2137      2139         0         1
      2141      2140      2142         0         1
      2144      2143      2145         0         1
      2147      2146      2148         0         1
      2150      2149      2151         0         1
      2153      2152      2154         0         1
      2156      2155      2157         0         1
      2159      2158      2160         0         1
      2162      2161      2163         0         1
      2165      2164      2166         0         1
      2168      2167      2169         0         1
      2171      2170      2172         0         1
      2174      2173      2175         0         1
      2177      2176      2178         0         1
      2180      2179      2181         0         1
      2183      2182      2184         0         1
      2186      2185      2187         0         1
      2189      2188      2190         0         1
      2192      2191      2193         0         1
      2195      2194      2196         0         1
      2198      2197      2199         0         1
      2201      2200      2202         0         1
      2204      2203      2205         0         1
      2207      2206      2208         0         1
      2210      2209      2211         0         1
      2213      2212      2214         0         1
      2216      2215      2217         0         1
      2219      2218      2220         0         1
      2222      2221      2223         0         1
      2225      2224      2226         0         1
      2228      2227      2229         0         1
      2231      2230      2232         0         1
      2234      2233      2235         0         1
      2237      2236      2238         0         1
      2240      2239      2241         0         1
      2243      2242      2244         0         1
      2246      2245      2247         0         1
      2249      2248      2250         0         1
      2252      2251      2253         0         1
      2255      2254      2256         0         1
      2258      2257      2259         0         1
      2261      2260      2262         0         1
      2264      2263      2265         0         1
      2267      2266      2268         0         1
      2270      2269      2271         0         1
      2273      2272      2274         0         1
      2276      2275      2277         0         1
      2279      2278      2280         0         1
      2282      2281      2283         0         1
      2285      2284      2286         0         1
      2288      2287      2289         0         1
      2291      2290      2292         0         1
      2294      2293      2295         0         1
      2297      2296      2298         0         1
      2300      2299      2301         0         1
      2303      2302      2304         0         1
      2306      2305      2307         0         1
      2309      2308      2310         0         1
      2312      2311      2313         0         1
      2315      2314      2316         0         1
      2318      2317      2319         0         1
      2321      2320      2322         0         1
      2324      2323      2325         0         1
      2327      2326      2328         0         1
      2330      2329      2331         0         1
      2333      2332      2334         0         1
      2336      2335      2337         0         1
      2339      2338      2340         0         1
      2342      2341      2343         0         1
      2345      2344      2346         0         1
      2348      2347      2349         0         1
      2351      2350      2352         0         1
      2354      2353      2355         0         1
      2357      2356      2358         0         1
      2360      2359      2361         0         1
      2363      2362      2364         0         1
      2366      2365      2367         0         1
      2369      2368      2370         0         1
      2372      2371      2373         0         1
      2375      2374      2376         0         1
      2378      2377      2379         0         1
      2381      2380      2382         0         1
      2384      2383      2385         0         1
      2387      2386      2388         0         1
      2390      2389      2391         0         1
      2393      2392      2394         0         1
      2396      2395      2397         0         1
      2399      2398      2400         0         1
      2402      2401      2403         0         1
      2405      2404      2406         0         1
      2408      2407      2409         0         1
      2411      2410      2412         0         1
      2414      2413      2415         0         1
      2417      2416      2418         0         1
      2420      2419      2421         0         1
      2423      2422      2424         0         1
      2426      2425      2427         0         1
      2429      2428      2430         0         1
      2432      2431      2433         0         1
      2435      2434      2436         0         1
      2438      2437      2439         0         1
      2441      2440      2442         0         1
      2444      2443      2445         0         1
      2447      2446      2448         0         1
      2450      2449      2451         0         1
      2453      2452      2454         0         1
      2456      2455      2457         0         1
      2459      2458      2460         0         1
      2462      2461      2463         0         1
      2465      2464      2466         0         1
      2468      2467      2469         0         1
      2471      2470      2472         0         1
      2474      2473      2475         0         1
      2477      2476      2478         0         1
      2480      2479      2481         0         1
      2483      2482      2484         0         1
      2486      2485      2487         0         1
      2489      2488      2490         0         1
      2492      2491      2493         0         1
      2495      2494      2496         0         1
      2498      2497      2499         0         1
      2501      2500      2502         0         1
      2504      2503      2505         0         1
      2507      2506      2508         0         1
      2510      2509      2511         0         1
      2513      2512      2514         0         1
      2516      2515      2517         0         1
      2519      2518      2520         0         1
      2522      2521      2523         0         1
      2525      2524      2526         0         1
      2528      2527      2529         0         1
      2531      2530      2532         0         1
      2534      2533      2535         0         1
      2537      2536      2538         0         1
      2540      2539      2541         0         1
      2543      2542      2544         0         1
      2546      2545      2547         0         1
      2549      2548      2550         0         1
      2552      2551      2553         0         1
      2555      2554      2556         0         1
      2558      2557      2559         0         1
      2561      2560      2562         0         1
      2564      2563      2565         0         1
      2567      2566      2568         0         1
      2570      2569      2571         0         1
      2573      2572      2574         0         1
      2576      2575      2577         0         1
      2579      2578      2580         0         1
      2582      2581      2583         0         1
      2585      2584      2586         0         1
      2588      2587      2589         0         1
      2591      2590      2592         0         1
      2594      2593      2595         0         1
      2597      2596      2598         0         1
      2600      2599      2601         0         1
      2603      2602      2604         0         1
      2606      2605      2607         0         1
      2609      2608      2610         0         1
      2612      2611      2613         0         1
      2615      2614      2616         0         1
      2618      2617      2619         0         1
      2621      2620      2622         0         1
      2624      2623      2625         0         1
      2627      2626      2628         0         1
      2630      2629      2631         0         1
      2633      2632      2634         0         1
      2636      2635      2637         0         1
      2639      2638      2640         0         1
      2642      2641      2643         0         1
      2645      2644      2646         0         1
      2648      2647      2649         0         1
      2651      2650      2652         0         1
      2654      2653      2655         0         1
      2657      2656      2658         0         1
      2660      2659      2661         0         1
      2663      2662      2664         0         1
      2666      2665      2667         0         1
      2669      2668      2670         0         1
      2672      2671      2673         0         1
      2675      2674      2676         0         1
      2678      2677      2679         0         1
      2681      2680      2682         0         1
      2684      2683      2685         0         1
      2687      2686      2688         0         1
      2690      2689      2691         0         1
      2693      2692      2694         0         1
      2696      2695      2697         0         1
      2699      2698      2700         0         1
      2702      2701      2703         0         1
      2705      2704      2706         0         1
      2708      2707      2709         0         1
      2711      2710      2712         0         1
      2714      2713      2715         0         1
      2717      2716      2718         0         1
      2720      2719      2721         0         1
      2723      2722      2724         0         1
      2726      2725      2727         0         1
      2729      2728      2730         0         1
      2732      2731      2733         0         1
      2735      2734      2736         0         1
      2738      2737      2739         0         1
      2741      2740      2742         0         1
      2744      2743      2745         0         1
      2747      2746      2748         0         1
      2750      2749      2751         0         1
      2753      2752      2754         0         1
      2756      2755      2757         0         1
      2759      2758      2760         0         1
      2762      2761      2763         0         1
      2765      2764      2766         0         1
      2768      2767      2769         0         1
      2771      2770      2772         0         1
      2774      2773      2775         0         1
      2777      2776      2778         0         1
      2780      2779      2781         0         1
      2783      2782      2784         0         1
      2786      2785      2787         0         1
      2789      2788      2790         0         1
      2792      2791      2793         0         1
      2795      2794      2796         0         1
      2798      2797      2799         0         1
      2801      2800      2802         0         1
      2804      2803      2805         0         1
      2807      2806      2808         0         1
      2810      2809      2811         0         1
      2813      2812      2814         0         1
      2816      2815      2817         0         1
      2819      2818      2820         0         1
      2822      2821      2823         0         1
      2825      2824      2826         0         1
      2828      2827      2829         0         1
      2831      2830      2832         0         1
      2834      2833      2835         0         1
      2837      2836      2838         0         1
      2840      2839      2841         0         1
      2843      2842      2844         0         1
      2846      2845      2847         0         1
      2849      2848      2850         0         1
      2852      2851      2853         0         1
      2855      2854      2856         0         1
      2858      2857      2859         0         1
      2861      2860      2862         0         1
      2864      2863      2865         0         1
      2867      2866      2868         0         1
      2870      2869      2871         0         1
      2873      2872      2874         0         1
      2876      2875      2877         0         1
      2879      2878      2880         0         1
      2882      2881      2883         0         1
      2885      2884      2886         0         1
      2888      2887      2889         0         1
      2891      2890      2892         0         1
      2894      2893      2895         0         1
      2897      2896      2898         0         1
      2900      2899      2901         0         1
      2903      2902      2904         0         1
      2906      2905      2907         0         1
      2909      2908      2910         0         1
      2912      2911      2913         0         1
      2915      2914      2916         0         1
      2918      2917      2919         0         1
      2921      2920      2922         0         1
      2924      2923      2925         0         1
      2927      2926      2928         0         1
      2930      2929      2931         0         1
      2933      2932      2934         0         1
      2936      2935      2937         0         1
      2939      2938      2940         0         1
      2942      2941      2943         0         1
      2945      2944      2946         0         1
      2948      2947      2949         0         1
      2951      2950      2952         0         1
      2954      2953      2955         0         1
      2957      2956      2958         0         1
      2960      2959      2961         0         1
      2963      2962      2964         0         1
      2966      2965      2967         0         1
      2969      2968      2970         0         1
      2972      2971      2973         0         1
      2975      2974      2976         0         1
      2978      2977      2979         0         1
      2981      2980      2982         0         1
      2984      2983      2985         0         1
      2987      2986      2988         0         1
      2990      2989      2991         0         1
      2993      2992      2994         0         1
      2996      2995      2997         0         1
      2999      2998      3000         0         1
      3002      3001      3003         0         1
      3005      3004      3006         0         1
      3008      3007      3009         0         1
      3011      3010      3012         0         1
      3014      3013      3015         0         1
      3017      3016      3018         0         1
      3020      3019      3021         0         1
      3023      3022      3024         0         1
      3026      3025      3027         0         1
      3029      3028      3030         0         1
      3032      3031      3033         0         1
      3035      3034      3036         0         1
      3038      3037      3039         0         1
      3041      3040      3042         0         1
      3044      3043      3045         0         1
      3047      3046      3048         0         1
      3050      3049      3051         0         1
      3053      3052      3054         0         1
      3056      3055      3057         0         1
      3059      3058      3060         0         1
      3062      3061      3063         0         1
      3065      3064      3066         0         1
      3068      3067      3069         0         1
      3071      3070      3072         0         1
      3074      3073      3075         0         1
      3077      3076      3078         0         1
      3080      3079      3081         0         1
      3083      3082      3084         0         1
      3086      3085      3087         0         1
      3089      3088      3090         0         1
      3092      3091      3093         0         1
      3095      3094      3096         0         1
      3098      3097      3099         0         1
      3101      3100      3102         0         1
      3104      3103      3105         0         1
      3107      3106      3108         0         1
      3110      3109      3111         0         1
      3113      3112      3114         0         1
      3116      3115      3117         0         1
      3119      3118      3120         0         1
      3122      3121      3123         0         1
      3125      3124      3126         0         1
      3128      3127      3129         0         1
      3131      3130      3132         0         1
      3134      3133      3135         0         1
      3137      3136      3138         0         1
      3140      3139      3141         0         1
      3143      3142      3144         0         1
      3146      3145      3147         0         1
      3149      3148      3150         0         1
      3152      3151      3153         0         1
      3155      3154      3156         0         1
      3158      3157      3159         0         1
      3161      3160      3162         0         1
      3164      3163      3165         0         1
      3167      3166      3168         0         1
      3170      3169      3171         0         1
      3173      3172      3174         0         1
      3176      3175      3177         0         1
      3179      3178      3180         0         1
      3182      3181      3183         0         1
      3185      3184      3186         0         1
      3188      3187      3189         0         1
      3191      3190      3192         0         1
      3194      3193      3195         0         1
      3197      3196      3198         0         1
      3200      3199      3201         0         1
      3203      3202      3204         0         1
      3206      3205      3207         0         1
      3209      3208      3210         0         1
      3212      3211      3213         0         1
      3215      3214      3216         0         1
      3218      3217      3219         0         1
      3221      3220      3222         0         1
      3224      3223      3225         0         1
      3227      3226      3228         0         1
      3230      3229      3231         0         1
      3233      3232      3234         0         1
      3236      3235      3237         0         1
      3239      3238      3240         0         1
      3242      3241      3243         0         1
      3245      3244      3246         0         1
      3248      3247      3249         0         1
      3251      3250      3252         0         1
      3254      3253      3255         0         1
      3257      3256      3258         0         1
      3260      3259      3261         0         1
      3263      3262      3264         0         1
      3266      3265      3267         0         1
      3269      3268      3270         0         1
      3272      3271      3273         0         1
      3275      3274      3276         0         1
      3278      3277      3279         0         1
      3281      3280      3282         0         1
      3284      3283      3285         0         1
      3287      3286      3288         0         1
      3290      3289      3291         0         1
      3293      3292      3294         0         1
      3296      3295      3297         0         1
      3299      3298      3300         0         1
      3302      3301      3303         0         1
      3305      3304      3306         0         1
      3308      3307      3309         0         1
      3311      3310      3312         0         1
      3314      3313      3315         0         1
      3317      3316      3318         0         1
      3320      3319      3321         0         1
      3323      3322      3324         0         1
      3326      3325      3327         0         1
      3329      3328      3330         0         1
      3332      3331      3333         0         1
      3335      3334      3336         0         1
      3338      3337      3339         0         1
      3341      3340      3342         0         1
      3344      3343      3345         0         1
      3347      3346      3348         0         1
      3350      3349      3351         0         1
      3353      3352      3354         0         1
      3356      3355      3357         0         1
      3359      3358      3360         0         1
      3362      3361      3363         0         1
      3365      3364      3366         0         1
      3368      3367      3369         0         1
      3371      3370      3372         0         1
      3374      3373      3375         0         1
      3377      3376      3378         0         1
      3380      3379      3381         0         1
      3383      3382      3384         0         1
      3386      3385      3387         0         1
      3389      3388      3390         0         1
      3392      3391      3393         0         1
      3395      3394      3396         0         1
      3398      3397      3399         0         1
      3401      3400      3402         0         1
      3404      3403      3405         0         1
      3407      3406      3408         0         1
      3410      3409      3411         0         1
      3413      3412      3414         0         1
      3416      3415      3417         0         1
      3419      3418      3420         0         1
      3422      3421      3423         0         1
      3425      3424      3426         0         1
      3428      3427      3429         0         1
      3431      3430      3432         0         1
      3434      3433      3435         0         1
      3437      3436      3438         0         1
      3440      3439      3441         0         1
      3443      3442      3444         0         1
      3446      3445      3447         0         1
      3449      3448      3450         0         1
      3452      3451      3453         0         1
      3455      3454      3456         0         1
      3458      3457      3459         0         1
      3461      3460      3462         0         1
      3464      3463      3465         0         1
      3467      3466      3468         0         1
      3470      3469      3471         0         1
      3473      3472      3474         0         1
      3476      3475      3477         0         1
      3479      3478      3480         0         1
      3482      3481      3483         0         1
      3485      3484      3486         0         1
      3488      3487      3489         0         1
      3491      3490      3492         0         1
      3494      3493      3495         0         1
      3497      3496      3498         0         1
      3500      3499      3501         0         1
      3503      3502      3504         0         1
      3506      3505      3507         0         1
      3509      3508      3510         0         1
      3512      3511      3513         0         1
      3515      3514      3516         0         1
      3518      3517      3519         0         1
      3521      3520      3522         0         1
      3524      3523      3525         0         1
      3527      3526      3528         0         1
      3530      3529      3531         0         1
      3533      3532      3534         0         1
      3536      3535      3537         0         1
      3539      3538      3540         0         1
      3542      3541      3543         0         1
      3545      3544      3546         0         1
      3548      3547      3549         0         1
      3551      3550      3552         0         1
      3554      3553      3555         0         1
      3557      3556      3558         0         1
      3560      3559      3561         0         1
      3563      3562      3564         0         1
      3566      3565      3567         0         1
      3569      3568      3570         0         1
      3572      3571      3573         0         1
      3575      3574      3576         0         1
      3578      3577      3579         0         1
      3581      3580      3582         0         1
      3584      3583      3585         0         1
      3587      3586      3588         0         1
      3590      3589      3591         0         1
      3593      3592      3594         0         1
      3596      3595      3597         0         1
      3599      3598      3600         0         1
      3602      3601      3603         0         1
      3605      3604      3606         0         1
      3608      3607      3609         0         1
      3611      3610      3612         0         1
      3614      3613      3615         0         1
      3617      3616      3618         0         1
      3620      3619      3621         0         1
      3623      3622      3624         0         1
      3626      3625      3627         0         1
      3629      3628      3630         0         1
      3632      3631      3633         0         1
      3635      3634      3636         0         1
      3638      3637      3639         0         1
      3641      3640      3642         0         1
      3644      3643      3645         0         1
      3647      3646      3648         0         1
      3650      3649      3651         0         1
      3653      3652      3654         0         1
      3656      3655      3657         0         1
      3659      3658      3660         0         1
      3662      3661      3663         0         1
      3665      3664      3666         0         1
      3668      3667      3669         0         1
      3671      3670      3672         0         1
      3674      3673      3675         0         1
      3677      3676      3678         0         1
      3680      3679      3681         0         1
      3683      3682      3684         0         1
      3686      3685      3687         0         1
      3689      3688      3690         0         1
      3692      3691      3693         0         1
      3695      3694      3696         0         1
      3698      3697      3699         0         1
      3701      3700      3702         0         1
      3704      3703      3705         0         1
      3707      3706      3708         0         1
      3710      3709      3711         0         1
      3713      3712      3714         0         1
      3716      3715      3717         0         1
      3719      3718      3720         0         1
      3722      3721      3723         0         1
      3725      3724      3726         0         1
      3728      3727      3729         0         1
      3731      3730      3732         0         1
      3734      3733      3735         0         1
      3737      3736      3738         0         1
      3740      3739      3741         0         1
      3743      3742      3744         0         1
      3746      3745      3747         0         1
      3749      3748      3750         0         1
      3752      3751      3753         0         1
      3755      3754      3756         0         1
      3758      3757      3759         0         1
      3761      3760      3762         0         1
      3764      3763      3765         0         1
      3767      3766      3768         0         1
      3770      3769      3771         0         1
      3773      3772      3774         0         1
      3776      3775      3777         0         1
      3779      3778      3780         0         1
      3782      3781      3783         0         1
      3785      3784      3786         0         1
      3788      3787      3789         0         1
      3791      3790      3792         0         1
      3794      3793      3795         0         1
      3797      3796      3798         0         1
      3800      3799      3801         0         1
      3803      3802      3804         0         1
      3806      3805      3807         0         1
      3809      3808      3810         0         1
      3812      3811      3813         0         1
      3815      3814      3816         0         1
      3818      3817      3819         0         1
      3821      3820      3822         0         1
      3824      3823      3825         0         1
      3827      3826      3828         0         1
      3830      3829      3831         0         1
      3833      3832      3834         0         1
      3836      3835      3837         0         1
      3839      3838      3840         0         1
      3842      3841      3843         0         1
      3845      3844      3846         0         1
      3848      3847      3849         0         1
      3851      3850      3852         0         1
      3854      3853      3855         0         1
      3857      3856      3858         0         1
      3860      3859      3861         0         1
      3863      3862      3864         0         1
      3866      3865      3867         0         1
      3869      3868      3870         0         1
      3872      3871      3873         0         1
      3875      3874      3876         0         1
      3878      3877      3879         0         1
      3881      3880      3882         0         1
      3884      3883      3885         0         1
      3887      3886      3888         0         1
      3890      3889      3891         0         1
      3893      3892      3894         0         1
      3896      3895      3897         0         1
      3899      3898      3900         0         1
      3902      3901      3903         0         1
      3905      3904      3906         0         1
      3908      3907      3909         0         1
      3911      3910      3912         0         1
      3914      3913      3915         0         1
      3917      3916      3918         0         1
      3920      3919      3921         0         1
      3923      3922      3924         0         1
      3926      3925      3927         0         1
      3929      3928      3930         0         1
      3932      3931      3933         0         1
      3935      3934      3936         0         1
      3938      3937      3939         0         1
      3941      3940      3942         0         1
      3944      3943      3945         0         1
      3947      3946      3948         0         1
      3950      3949      3951         0         1
      3953      3952      3954         0         1
      3956      3955      3957         0         1
      3959      3958      3960         0         1
      3962      3961      3963         0         1
      3965      3964      3966         0         1
      3968      3967      3969         0         1
      3971      3970      3972         0         1
      3974      3973      3975         0         1
      3977      3976      3978         0         1
      3980      3979      3981         0         1
      3983      3982      3984         0         1
      3986      3985      3987         0         1
      3989      3988      3990         0         1
      3992      3991      3993         0         1
      3995      3994      3996         0         1
      3998      3997      3999         0         1
      4001      4000      4002         0         1
      4004      4003      4005         0         1
      4007      4006      4008         0         1
      4010      4009      4011         0         1
      4013      4012      4014         0         1
      4016      4015      4017         0         1
      4019      4018      4020         0         1
      4022      4021      4023         0         1
      4025      4024      4026         0         1
      4028      4027      4029         0         1
      4031      4030      4032         0         1
      4034      4033      4035         0         1
      4037      4036      4038         0         1
      4040      4039      4041         0         1
      4043      4042      4044         0         1
      4046      4045      4047         0         1
      4049      4048      4050         0         1
      4052      4051      4053         0         1
      4055      4054      4056         0         1
      4058      4057      4059         0         1
      4061      4060      4062         0         1
      4064      4063      4065         0         1
      4067      4066      4068         0         1
      4070      4069      4071         0         1
      4073      4072      4074         0         1
      4076      4075      4077         0         1
      4079      4078      4080         0         1
      4082      4081      4083         0         1
      4085      4084      4086         0         1
      4088      4087      4089         0         1
      4091      4090      4092         0         1
      4094      4093      4095         0         1
      4097      4096      4098         0         1
      4100      4099      4101         0         1
      4103      4102      4104         0         1
      4106      4105      4107         0         1
      4109      4108      4110         0         1
      4112      4111      4113         0         1
      4115      4114      4116         0         1
      4118      4117      4119         0         1
      4121      4120      4122         0         1
      4124      4123      4125         0         1
      4127      4126      4128         0         1
      4130      4129      4131         0         1
      4133      4132      4134         0         1
      4136      4135      4137         0         1
      4139      4138      4140         0         1
      4142      4141      4143         0         1
      4145      4144      4146         0         1
      4148      4147      4149         0         1
      4151      4150      4152         0         1
      4154      4153      4155         0         1
      4157      4156      4158         0         1
      4160      4159      4161         0         1
      4163      4162      4164         0         1
      4166      4165      4167         0         1
      4169      4168      4170         0         1
      4172      4171      4173         0         1
      4175      4174      4176         0         1
      4178      4177      4179         0         1
      4181      4180      4182         0         1
      4184      4183      4185         0         1
      4187      4186      4188         0         1
      4190      4189      4191         0         1
      4193      4192      4194         0         1
      4196      4195      4197         0         1
      4199      4198      4200         0         1
      4202      4201      4203         0         1
      4205      4204      4206         0         1
      4208      4207      4209         0         1
      4211      4210      4212         0         1
      4214      4213      4215         0         1
      4217      4216      4218         0         1
      4220      4219      4221         0         1
      4223      4222      4224         0         1
      4226      4225      4227         0         1
      4229      4228      4230         0         1
      4232      4231      4233         0         1
      4235      4234      4236         0         1
      4238      4237      4239         0         1
      4241      4240      4242         0         1
      4244      4243      4245         0         1
      4247      4246      4248         0         1
      4250      4249      4251         0         1
      4253      4252      4254         0         1
      4256      4255      4257         0         1
      4259      4258      4260         0         1
      4262      4261      4263         0         1
      4265      4264      4266         0         1
      4268      4267      4269         0         1
      4271      4270      4272         0         1
      4274      4273      4275         0         1
      4277      4276      4278         0         1
      4280      4279      4281         0         1
      4283      4282      4284         0         1
      4286      4285      4287         0         1
      4289      4288      4290         0         1
      4292      4291      4293         0         1
      4295      4294      4296         0         1
      4298      4297      4299         0         1
      4301      4300      4302         0         1
      4304      4303      4305         0         1
      4307      4306      4308         0         1
      4310      4309      4311         0         1
      4313      4312      4314         0         1
      4316      4315      4317         0         1
      4319      4318      4320         0         1
      4322      4321      4323         0         1
      4325      4324      4326         0         1
      4328      4327      4329         0         1
      4331      4330      4332         0         1
      4334      4333      4335         0         1
      4337      4336      4338         0         1
      4340      4339      4341         0         1
      4343      4342      4344         0         1
      4346      4345      4347         0         1
      4349      4348      4350         0         1
      4352      4351      4353         0         1
      4355      4354      4356         0         1
      4358      4357      4359         0         1
      4361      4360      4362         0         1
      4364      4363      4365         0         1
      4367      4366      4368         0         1
      4370      4369      4371         0         1
      4373      4372      4374         0         1
      4376      4375      4377         0         1
      4379      4378      4380         0         1
      4382      4381      4383         0         1
      4385      4384      4386         0         1
      4388      4387      4389         0         1
      4391      4390      4392         0         1
      4394      4393      4395         0         1
      4397      4396      4398         0         1
      4400      4399      4401         0         1
      4403      4402      4404         0         1
      4406      4405      4407         0         1
      4409      4408      4410         0         1
      4412      4411      4413         0         1
      4415      4414      4416         0         1
      4418      4417      4419         0         1
      4421      4420      4422         0         1
      4424      4423      4425         0         1
      4427      4426      4428         0         1
      4430      4429      4431         0         1
      4433      4432      4434         0         1
      4436      4435      4437         0         1
      4439      4438      4440         0         1
      4442      4441      4443         0         1
      4445      4444      4446         0         1
      4448      4447      4449         0         1
      4451      4450      4452         0         1
      4454      4453      4455         0         1
      4457      4456      4458         0         1
      4460      4459      4461         0         1
      4463      4462      4464         0         1
      4466      4465      4467         0         1
      4469      4468      4470         0         1
      4472      4471      4473         0         1
      4475      4474      4476         0         1
      4478      4477      4479         0         1
      4481      4480      4482         0         1
      4484      4483      4485         0         1
      4487      4486      4488         0         1
      4490      4489      4491         0         1
      4493      4492      4494         0         1
      4496      4495      4497         0         1
      4499      4498      4500         0         1
      4502      4501      4503         0         1
      4505      4504      4506         0         1
      4508      4507      4509         0         1
      4511      4510      4512         0         1
      4514      4513      4515         0         1
      4517      4516      4518         0         1
      4520      4519      4521         0         1
      4523      4522      4524         0         1
      4526      4525      4527         0         1
      4529      4528      4530         0         1
      4532      4531      4533         0         1
      4535      4534      4536         0         1
      4538      4537      4539         0         1
      4541      4540      4542         0         1
      4544      4543      4545         0         1
      4547      4546      4548         0         1
      4550      4549      4551         0         1
      4553      4552      4554         0         1
      4556      4555      4557         0         1
      4559      4558      4560         0         1
      4562      4561      4563         0         1
      4565      4564      4566         0         1
      4568      4567      4569         0         1
      4571      4570      4572         0         1
      4574      4573      4575         0         1
      4577      4576      4578         0         1
      4580      4579      4581         0         1
      4583      4582      4584         0         1
      4586      4585      4587         0         1
      4589      4588      4590         0         1
      4592      4591      4593         0         1
      4595      4594      4596         0         1
      4598      4597      4599         0         1
      4601      4600      4602         0         1
      4604      4603      4605         0         1
      4607      4606      4608         0         1
      4610      4609      4611         0         1
      4613      4612      4614         0         1
      4616      4615      4617         0         1
      4619      4618      4620         0         1
      4622      4621      4623         0         1
      4625      4624      4626         0         1
      4628      4627      4629         0         1
      4631      4630      4632         0         1
      4634      4633      4635         0         1
      4637      4636      4638         0         1
      4640      4639      4641         0         1
      4643      4642      4644         0         1
      4646      4645      4647         0         1
      4649      4648      4650         0         1
      4652      4651      4653         0         1
      4655      4654      4656         0         1
      4658      4657      4659         0         1
      4661      4660      4662         0         1
      4664      4663      4665         0         1
      4667      4666      4668         0         1
      4670      4669      4671         0         1
      4673      4672      4674         0         1
      4676      4675      4677         0         1
      4679      4678      4680         0         1
      4682      4681      4683         0         1
      4685      4684      4686         0         1
      4688      4687      4689         0         1
      4691      4690      4692         0         1
      4694      4693      4695         0         1
      4697      4696      4698         0         1
      4700      4699      4701         0         1
      4703      4702      4704         0         1
      4706      4705      4707         0         1
      4709      4708      4710         0         1
      4712      4711      4713         0         1
      4715      4714      4716         0         1
      4718      4717      4719         0         1
      4721      4720      4722         0         1
      4724      4723      4725         0         1
      4727      4726      4728         0         1
      4730      4729      4731         0         1
      4733      4732      4734         0         1
      4736      4735      4737         0         1
      4739      4738      4740         0         1
      4742      4741      4743         0         1
      4745      4744      4746         0         1
      4748      4747      4749         0         1
      4751      4750      4752         0         1
      4754      4753      4755         0         1
      4757      4756      4758         0         1
      4760      4759      4761         0         1
      4763      4762      4764         0         1
      4766      4765      4767         0         1
      4769      4768      4770         0         1
      4772      4771      4773         0         1
      4775      4774      4776         0         1
      4778      4777      4779         0         1
      4781      4780      4782         0         1
      4784      4783      4785         0         1
      4787      4786      4788         0         1
      4790      4789      4791         0         1
      4793      4792      4794         0         1
      4796      4795      4797         0         1
      4799      4798      4800         0         1
      4802      4801      4803         0         1
      4805      4804      4806         0         1
      4808      4807      4809         0         1
      4811      4810      4812         0         1
      4814      4813      4815         0         1
      4817      4816      4818         0         1
      4820      4819      4821         0         1
      4823      4822      4824         0         1
      4826      4825      4827         0         1
      4829      4828      4830         0         1
      4832      4831      4833         0         1
      4835      4834      4836         0         1
      4838      4837      4839         0         1
      4841      4840      4842         0         1
      4844      4843      4845         0         1
      4847      4846      4848         0         1
      4850      4849      4851         0         1
      4853      4852      4854         0         1
      4856      4855      4857         0         1
      4859      4858      4860         0         1
      4862      4861      4863         0         1
      4865      4864      4866         0         1
      4868      4867      4869         0         1
      4871      4870      4872         0         1
      4874      4873      4875         0         1
      4877      4876      4878         0         1
      4880      4879      4881         0         1
      4883      4882      4884         0         1
      4886      4885      4887         0         1
      4889      4888      4890         0         1
      4892      4891      4893         0         1
      4895      4894      4896         0         1
      4898      4897      4899         0         1
      4901      4900      4902         0         1
      4904      4903      4905         0         1
      4907      4906      4908         0         1
      4910      4909      4911         0         1
      4913      4912      4914         0         1
      4916      4915      4917         0         1
      4919      4918      4920         0         1
      4922      4921      4923         0         1
      4925      4924      4926         0         1
      4928      4927      4929         0         1
      4931      4930      4932         0         1
      4934      4933      4935         0         1
      4937      4936      4938         0         1
      4940      4939      4941         0         1
      4943      4942      4944         0         1
      4946      4945      4947         0         1
      4949      4948      4950         0         1
      4952      4951      4953         0         1
      4955      4954      4956         0         1
      4958      4957      4959         0         1
      4961      4960      4962         0         1
      4964      4963      4965         0         1
      4967      4966      4968         0         1
      4970      4969      4971         0         1
      4973      4972      4974         0         1
      4976      4975      4977         0         1
      4979      4978      4980         0         1
      4982      4981      4983         0         1
      4985      4984      4986         0         1
      4988      4987      4989         0         1
      4991      4990      4992         0         1
      4994      4993      4995         0         1
      4997      4996      4998         0         1
      5000      4999      5001         0         1
      5003      5002      5004         0         1
      5006      5005      5007         0         1
      5009      5008      5010         0         1
      5012      5011      5013         0         1
      5015      5014      5016         0         1
      5018      5017      5019         0         1
      5021      5020      5022         0         1
      5024      5023      5025         0         1
      5027      5026      5028         0         1
      5030      5029      5031         0         1
      5033      5032      5034         0         1
      5036      5035      5037         0         1
      5039      5038      5040         0         1
      5042      5041      5043         0         1
      5045      5044      5046         0         1
      5048      5047      5049         0         1
      5051      5050      5052         0         1
      5054      5053      5055         0         1
      5057      5056      5058         0         1
      5060      5059      5061         0         1
      5063      5062      5064         0         1
      5066      5065      5067         0         1
      5069      5068      5070         0         1
      5072      5071      5073         0         1
      5075      5074      5076         0         1
      5078      5077      5079         0         1
      5081      5080      5082         0         1
      5084      5083      5085         0         1
      5087      5086      5088         0         1
      5090      5089      5091         0         1
      5093      5092      5094         0         1
      5096      5095      5097         0         1
      5099      5098      5100         0         1
      5102      5101      5103         0         1
      5105      5104      5106         0         1
      5108      5107      5109         0         1
      5111      5110      5112         0         1
      5114      5113      5115         0         1
      5117      5116      5118         0         1
      5120      5119      5121         0         1
      5123      5122      5124         0         1
      5126      5125      5127         0         1
      5129      5128      5130         0         1
      5132      5131      5133         0         1
      5135      5134      5136         0         1
      5138      5137      5139         0         1
      5141      5140      5142         0         1
      5144      5143      5145         0         1
      5147      5146      5148         0         1
      5150      5149      5151         0         1
      5153      5152      5154         0         1
      5156      5155      5157         0         1
      5159      5158      5160         0         1
      5162      5161      5163         0         1
      5165      5164      5166         0         1
      5168      5167      5169         0         1
      5171      5170      5172         0         1
      5174      5173      5175         0         1
      5177      5176      5178         0         1
